# vtk DataFile Version 2.0
Test
ASCII
DATASET UNSTRUCTURED_GRID
POINTS 5874 float
4.302424e+01 3.355103e+02 -2.551245e+02
4.356442e+01 3.689423e+02 -2.520172e+02
5.214751e+01 3.652208e+02 -2.108842e+02
5.187665e+01 3.215426e+02 -2.115527e+02
4.400964e+01 3.355423e+02 -2.552917e+02
4.454857e+01 3.689391e+02 -2.521945e+02
5.312695e+01 3.652207e+02 -2.110859e+02
5.285825e+01 3.215814e+02 -2.117397e+02
4.410484e+01 4.023781e+02 -2.489131e+02
5.241787e+01 4.089141e+02 -2.102262e+02
4.508726e+01 4.023321e+02 -2.490941e+02
5.339614e+01 4.088449e+02 -2.104216e+02
6.086540e+01 4.155267e+02 -1.713116e+02
6.086958e+01 3.615115e+02 -1.695058e+02
6.157052e+01 4.152811e+02 -1.719768e+02
6.156634e+01 3.614901e+02 -1.702227e+02
6.086282e+01 3.075261e+02 -1.677397e+02
6.157310e+01 3.076693e+02 -1.684289e+02
1.414657e+01 3.236756e+02 -5.284918e+02
1.912983e+01 2.785737e+02 -5.224505e+02
1.717367e+01 2.881545e+02 -5.613949e+02
1.155938e+01 3.415758e+02 -5.772002e+02
1.514247e+01 3.237494e+02 -5.285442e+02
2.012314e+01 2.786764e+02 -5.225035e+02
1.816817e+01 2.882574e+02 -5.614147e+02
1.255700e+01 3.416379e+02 -5.772304e+02
2.411860e+01 2.334406e+02 -5.164109e+02
2.279380e+01 2.347058e+02 -5.455804e+02
2.509830e+01 2.336346e+02 -5.164611e+02
2.377348e+01 2.349043e+02 -5.456083e+02
2.146896e+01 2.359734e+02 -5.747385e+02
1.521788e+01 2.977377e+02 -6.003221e+02
2.244870e+01 2.361716e+02 -5.747669e+02
1.621281e+01 2.978360e+02 -6.003432e+02
8.972516e+00 3.594794e+02 -6.258993e+02
9.971210e+00 3.595230e+02 -6.259259e+02
7.686816e+00 4.048311e+02 -6.752949e+02
8.486935e+00 4.333956e+02 -6.349702e+02
9.343385e+00 3.983204e+02 -5.913466e+02
8.686583e+00 4.048368e+02 -6.753158e+02
9.486740e+00 4.333996e+02 -6.349896e+02
1.034276e+01 3.983361e+02 -5.913783e+02
6.402486e+00 4.501975e+02 -7.246962e+02
7.631733e+00 4.685005e+02 -6.785989e+02
7.400586e+00 4.501359e+02 -7.247000e+02
8.629475e+00 4.684334e+02 -6.785958e+02
8.862043e+00 4.868150e+02 -6.324875e+02
9.288284e+00 4.619900e+02 -5.946325e+02
9.857301e+00 4.867194e+02 -6.325057e+02
1.028567e+01 4.619325e+02 -5.946764e+02
9.715392e+00 4.371740e+02 -5.567847e+02
1.071317e+01 4.371366e+02 -5.568399e+02
6.091227e+01 7.082566e+02 -8.358053e+02
6.091017e+01 6.964677e+02 -7.724284e+02
3.838428e+01 6.404636e+02 -7.856593e+02
3.811951e+01 6.496140e+02 -8.519348e+02
6.152365e+01 7.074736e+02 -8.359195e+02
6.152575e+01 6.956929e+02 -7.725726e+02
3.931807e+01 6.401107e+02 -7.857183e+02
3.905048e+01 6.492533e+02 -8.519910e+02
6.091316e+01 6.846827e+02 -7.090541e+02
3.865371e+01 6.313242e+02 -7.193784e+02
6.152276e+01 6.839083e+02 -7.092231e+02
3.958101e+01 6.309570e+02 -7.194509e+02
1.653104e+01 5.781023e+02 -7.296689e+02
1.599655e+01 5.846022e+02 -7.988600e+02
1.750248e+01 5.778691e+02 -7.297125e+02
1.697224e+01 5.843857e+02 -7.988941e+02
1.545985e+01 5.910900e+02 -8.680559e+02
1.644421e+01 5.909144e+02 -8.680709e+02
2.120022e+01 5.652638e+02 -6.175167e+02
1.886661e+01 5.716881e+02 -6.735965e+02
3.982281e+01 6.208544e+02 -6.629698e+02
4.098983e+01 6.103781e+02 -6.065575e+02
2.216278e+01 5.650030e+02 -6.175903e+02
1.983165e+01 5.714310e+02 -6.736477e+02
4.074428e+01 6.204754e+02 -6.630554e+02
4.190963e+01 6.100003e+02 -6.066637e+02
6.091589e+01 6.701568e+02 -6.523064e+02
6.152003e+01 6.693837e+02 -6.524999e+02
6.091619e+01 6.556284e+02 -5.955583e+02
6.151973e+01 6.548616e+02 -5.957771e+02
6.092319e+01 7.219338e+02 -9.635007e+02
6.091972e+01 7.150972e+02 -8.996554e+02
4.016732e+01 6.659655e+02 -9.129233e+02
4.221255e+01 6.823110e+02 -9.739208e+02
6.151273e+01 7.211288e+02 -9.635671e+02
6.151620e+01 7.142992e+02 -8.997409e+02
4.108493e+01 6.655722e+02 -9.129813e+02
4.312196e+01 6.818971e+02 -9.739626e+02
1.954761e+01 6.169539e+02 -9.261987e+02
2.052097e+01 6.167251e+02 -9.262142e+02
2.363100e+01 6.427961e+02 -9.843485e+02
2.460210e+01 6.425575e+02 -9.843505e+02
3.304071e+01 3.825956e+02 -1.092165e+03
3.544618e+01 3.964410e+02 -1.117752e+03
2.951614e+01 4.377934e+02 -1.077767e+03
2.599588e+01 4.226748e+02 -1.038862e+03
3.403383e+01 3.826334e+02 -1.092055e+03
3.643927e+01 3.964795e+02 -1.117641e+03
3.050970e+01 4.378285e+02 -1.077659e+03
2.698963e+01 4.227076e+02 -1.038756e+03
3.785207e+01 4.102875e+02 -1.143342e+03
3.303687e+01 4.529132e+02 -1.116676e+03
3.884429e+01 4.103245e+02 -1.143224e+03
3.402931e+01 4.529483e+02 -1.116558e+03
2.822117e+01 4.955421e+02 -1.090006e+03
2.358580e+01 4.791475e+02 -1.037779e+03
2.921483e+01 4.955689e+02 -1.089896e+03
2.458044e+01 4.791759e+02 -1.037680e+03
1.894990e+01 4.627542e+02 -9.855466e+02
1.994658e+01 4.627816e+02 -9.854700e+02
4.002400e+01 6.568728e+02 -1.216953e+03
3.499171e+01 6.588569e+02 -1.156546e+03
3.427097e+01 6.155627e+02 -1.154100e+03
3.974035e+01 6.025211e+02 -1.206649e+03
4.101334e+01 6.567536e+02 -1.216869e+03
3.597885e+01 6.587083e+02 -1.156487e+03
3.526663e+01 6.155632e+02 -1.154007e+03
4.073209e+01 6.025400e+02 -1.206523e+03
2.996268e+01 6.608536e+02 -1.096141e+03
2.880295e+01 6.286093e+02 -1.101558e+03
3.094110e+01 6.606504e+02 -1.096103e+03
2.979981e+01 6.285814e+02 -1.101484e+03
2.765298e+01 5.964440e+02 -1.106966e+03
3.355526e+01 5.723375e+02 -1.151644e+03
2.864876e+01 5.964334e+02 -1.106874e+03
3.454938e+01 5.723491e+02 -1.151537e+03
3.945824e+01 5.482351e+02 -1.196326e+03
4.044930e+01 5.482607e+02 -1.196196e+03
6.090216e+01 5.702062e+02 -3.579355e+02
6.089897e+01 5.387430e+02 -3.007688e+02
4.573106e+01 4.994237e+02 -3.309898e+02
4.349202e+01 5.252915e+02 -3.833887e+02
6.153376e+01 5.695052e+02 -3.582665e+02
6.153695e+01 5.380683e+02 -3.011400e+02
4.668326e+01 4.991618e+02 -3.311470e+02
4.443609e+01 5.249979e+02 -3.835388e+02
6.088264e+01 5.072396e+02 -2.435693e+02
4.796818e+01 4.735408e+02 -2.785859e+02
6.155328e+01 5.066716e+02 -2.440463e+02
4.893236e+01 4.733409e+02 -2.787603e+02
3.519184e+01 4.399809e+02 -3.134599e+02
3.070681e+01 4.602532e+02 -3.611120e+02
3.617332e+01 4.398713e+02 -3.136169e+02
3.168592e+01 4.601066e+02 -3.612529e+02
2.622137e+01 4.805187e+02 -4.087643e+02
2.719893e+01 4.803487e+02 -4.088887e+02
2.153494e+01 4.254867e+02 -4.315165e+02
1.889979e+01 4.538322e+02 -4.827328e+02
2.452312e+01 5.038729e+02 -4.599304e+02
2.252956e+01 4.254405e+02 -4.316092e+02
1.989482e+01 4.537667e+02 -4.828078e+02
2.549748e+01 5.036760e+02 -4.600394e+02
1.685632e+01 3.704846e+02 -4.542558e+02
1.328552e+01 4.038336e+02 -5.055222e+02
1.785238e+01 3.705024e+02 -4.543426e+02
1.428311e+01 4.038152e+02 -5.055893e+02
1.626585e+01 4.821823e+02 -5.339424e+02
1.725888e+01 4.820882e+02 -5.340132e+02
2.282580e+01 5.272268e+02 -5.110917e+02
2.379510e+01 5.270036e+02 -5.111949e+02
1.242194e+01 3.727045e+02 -5.413619e+02
1.550144e+01 3.470757e+02 -4.913732e+02
1.342057e+01 3.727268e+02 -5.414092e+02
1.649743e+01 3.471303e+02 -4.914440e+02
2.929944e+01 3.516967e+02 -3.428541e+02
3.224361e+01 3.958288e+02 -3.281608e+02
3.790370e+01 3.823847e+02 -2.900900e+02
3.616172e+01 3.436042e+02 -2.989893e+02
3.029106e+01 3.517189e+02 -3.429815e+02
3.323422e+01 3.958051e+02 -3.282954e+02
3.889171e+01 3.823729e+02 -2.902440e+02
3.715047e+01 3.436299e+02 -2.991366e+02
3.964826e+01 4.211782e+02 -2.811847e+02
4.063037e+01 4.211030e+02 -2.813573e+02
2.837821e+01 2.428524e+02 -4.300967e+02
2.261500e+01 3.066774e+02 -4.421756e+02
2.776341e+01 3.048913e+02 -3.910520e+02
3.245434e+01 2.486714e+02 -3.835391e+02
2.935907e+01 2.430260e+02 -4.301851e+02
2.360799e+01 3.067553e+02 -4.422645e+02
2.875622e+01 3.049619e+02 -3.911487e+02
3.343533e+01 2.488338e+02 -3.836453e+02
2.307777e+01 3.610916e+02 -3.985549e+02
2.407183e+01 3.611097e+02 -3.986621e+02
3.291265e+01 3.031031e+02 -3.399228e+02
3.390363e+01 3.031707e+02 -3.400385e+02
3.652962e+01 2.544947e+02 -3.369849e+02
3.751244e+01 2.546373e+02 -3.371021e+02
2.688920e+01 4.106578e+02 -3.798380e+02
2.788196e+01 4.106228e+02 -3.799529e+02
2.087285e+01 2.926251e+02 -4.823064e+02
2.186513e+01 2.927163e+02 -4.823906e+02
2.624838e+01 2.381464e+02 -4.732528e+02
2.722871e+01 2.383304e+02 -4.733241e+02
4.660070e+01 1.974199e+02 -3.727835e+02
4.456340e+01 1.869731e+02 -4.233307e+02
4.756210e+01 1.976748e+02 -3.728873e+02
4.552320e+01 1.872411e+02 -4.234144e+02
4.863487e+01 2.078775e+02 -3.222434e+02
4.960412e+01 2.080977e+02 -3.223532e+02
6.089332e+01 1.610574e+02 -3.074086e+02
6.090554e+01 1.459675e+02 -3.619687e+02
6.154260e+01 1.617610e+02 -3.076976e+02
6.153038e+01 1.467167e+02 -3.621886e+02
6.091044e+01 1.308928e+02 -4.165076e+02
6.152548e+01 1.316572e+02 -4.167008e+02
6.091383e+01 1.188499e+02 -4.729040e+02
4.349843e+01 1.786011e+02 -4.731064e+02
6.152209e+01 1.196261e+02 -4.730698e+02
4.445807e+01 1.788753e+02 -4.731690e+02
6.082993e+01 1.068907e+02 -5.293136e+02
4.243414e+01 1.702277e+02 -5.228818e+02
6.160599e+01 1.075113e+02 -5.294256e+02
4.339227e+01 1.705109e+02 -5.229238e+02
4.177284e+01 1.713819e+02 -5.510326e+02
4.111107e+01 1.725388e+02 -5.791729e+02
4.272876e+01 1.716747e+02 -5.510532e+02
4.206572e+01 1.728358e+02 -5.791932e+02
6.073981e+01 1.081054e+02 -5.564863e+02
6.169611e+01 1.083977e+02 -5.564967e+02
6.074047e+01 1.091539e+02 -5.836083e+02
6.169545e+01 1.094503e+02 -5.836185e+02
1.146136e+01 5.141230e+02 -7.271911e+02
1.206105e+01 5.264196e+02 -7.940535e+02
1.245694e+01 5.140294e+02 -7.271977e+02
1.305829e+01 5.263458e+02 -7.940631e+02
8.136302e+00 4.683081e+02 -7.892373e+02
9.133594e+00 4.682348e+02 -7.892419e+02
9.868937e+00 4.863974e+02 -8.537923e+02
1.266069e+01 5.387105e+02 -8.609284e+02
1.086778e+01 4.863550e+02 -8.537699e+02
1.365970e+01 5.386679e+02 -8.609161e+02
4.742563e+01 4.300921e+02 -1.222159e+03
5.407444e+01 4.292724e+02 -1.267635e+03
5.208344e+01 4.895685e+02 -1.265077e+03
4.344245e+01 4.891605e+02 -1.209246e+03
4.841623e+01 4.301245e+02 -1.222027e+03
5.506445e+01 4.292981e+02 -1.267497e+03
5.307187e+01 4.895987e+02 -1.264928e+03
4.443225e+01 4.891957e+02 -1.209108e+03
6.072126e+01 4.284540e+02 -1.313096e+03
6.072313e+01 4.899782e+02 -1.320899e+03
6.171466e+01 4.284704e+02 -1.312982e+03
6.171279e+01 4.900000e+02 -1.320758e+03
6.072285e+01 5.515061e+02 -1.328687e+03
[...]
POINT_DATA 5874
VECTORS DISPLACEMENT float
0.000000e+00 0.000000e+00 0.000000e+00
0.000000e+00 0.000000e+00 0.000000e+00
0.000000e+00 0.000000e+00 0.000000e+00
0.000000e+00 0.000000e+00 0.000000e+00
0.000000e+00 0.000000e+00 0.000000e+00
0.000000e+00 0.000000e+00 0.000000e+00
0.000000e+00 0.000000e+00 0.000000e+00
0.000000e+00 0.000000e+00 0.000000e+00
0.000000e+00 0.000000e+00 0.000000e+00
0.000000e+00 0.000000e+00 0.000000e+00
0.000000e+00 0.000000e+00 0.000000e+00
0.000000e+00 0.000000e+00 0.000000e+00
0.000000e+00 0.000000e+00 0.000000e+00
0.000000e+00 0.000000e+00 0.000000e+00
0.000000e+00 0.000000e+00 0.000000e+00
0.000000e+00 0.000000e+00 0.000000e+00
0.000000e+00 0.000000e+00 0.000000e+00
0.000000e+00 0.000000e+00 0.000000e+00
0.000000e+00 0.000000e+00 0.000000e+00
0.000000e+00 0.000000e+00 0.000000e+00
0.000000e+00 0.000000e+00 0.000000e+00
0.000000e+00 0.000000e+00 0.000000e+00
0.000000e+00 0.000000e+00 0.000000e+00
0.000000e+00 0.000000e+00 0.000000e+00
0.000000e+00 0.000000e+00 0.000000e+00
0.000000e+00 0.000000e+00 0.000000e+00
0.000000e+00 0.000000e+00 0.000000e+00
0.000000e+00 0.000000e+00 0.000000e+00
0.000000e+00 0.000000e+00 0.000000e+00
0.000000e+00 0.000000e+00 0.000000e+00
0.000000e+00 0.000000e+00 0.000000e+00
0.000000e+00 0.000000e+00 0.000000e+00
0.000000e+00 0.000000e+00 0.000000e+00
0.000000e+00 0.000000e+00 0.000000e+00
0.000000e+00 0.000000e+00 0.000000e+00
0.000000e+00 0.000000e+00 0.000000e+00
0.000000e+00 0.000000e+00 0.000000e+00
0.000000e+00 0.000000e+00 0.000000e+00
0.000000e+00 0.000000e+00 0.000000e+00
0.000000e+00 0.000000e+00 0.000000e+00
0.000000e+00 0.000000e+00 0.000000e+00
0.000000e+00 0.000000e+00 0.000000e+00
0.000000e+00 0.000000e+00 0.000000e+00
0.000000e+00 0.000000e+00 0.000000e+00
0.000000e+00 0.000000e+00 0.000000e+00
0.000000e+00 0.000000e+00 0.000000e+00
0.000000e+00 0.000000e+00 0.000000e+00
0.000000e+00 0.000000e+00 0.000000e+00
0.000000e+00 0.000000e+00 0.000000e+00
0.000000e+00 0.000000e+00 0.000000e+00
0.000000e+00 0.000000e+00 0.000000e+00
0.000000e+00 0.000000e+00 0.000000e+00
0.000000e+00 0.000000e+00 0.000000e+00
0.000000e+00 0.000000e+00 0.000000e+00
0.000000e+00 0.000000e+00 0.000000e+00
0.000000e+00 0.000000e+00 0.000000e+00
0.000000e+00 0.000000e+00 0.000000e+00
0.000000e+00 0.000000e+00 0.000000e+00
0.000000e+00 0.000000e+00 0.000000e+00
0.000000e+00 0.000000e+00 0.000000e+00
0.000000e+00 0.000000e+00 0.000000e+00
0.000000e+00 0.000000e+00 0.000000e+00
0.000000e+00 0.000000e+00 0.000000e+00
0.000000e+00 0.000000e+00 0.000000e+00
0.000000e+00 0.000000e+00 0.000000e+00
0.000000e+00 0.000000e+00 0.000000e+00
0.000000e+00 0.000000e+00 0.000000e+00
0.000000e+00 0.000000e+00 0.000000e+00
0.000000e+00 0.000000e+00 0.000000e+00
0.000000e+00 0.000000e+00 0.000000e+00
0.000000e+00 0.000000e+00 0.000000e+00
0.000000e+00 0.000000e+00 0.000000e+00
0.000000e+00 0.000000e+00 0.000000e+00
0.000000e+00 0.000000e+00 0.000000e+00
0.000000e+00 0.000000e+00 0.000000e+00
0.000000e+00 0.000000e+00 0.000000e+00
0.000000e+00 0.000000e+00 0.000000e+00
0.000000e+00 0.000000e+00 0.000000e+00
0.000000e+00 0.000000e+00 0.000000e+00
0.000000e+00 0.000000e+00 0.000000e+00
0.000000e+00 0.000000e+00 0.000000e+00
0.000000e+00 0.000000e+00 0.000000e+00
0.000000e+00 0.000000e+00 0.000000e+00
0.000000e+00 0.000000e+00 0.000000e+00
0.000000e+00 0.000000e+00 0.000000e+00
0.000000e+00 0.000000e+00 0.000000e+00
0.000000e+00 0.000000e+00 0.000000e+00
0.000000e+00 0.000000e+00 0.000000e+00
0.000000e+00 0.000000e+00 0.000000e+00
0.000000e+00 0.000000e+00 0.000000e+00
0.000000e+00 0.000000e+00 0.000000e+00
0.000000e+00 0.000000e+00 0.000000e+00
0.000000e+00 0.000000e+00 0.000000e+00
0.000000e+00 0.000000e+00 0.000000e+00
0.000000e+00 0.000000e+00 0.000000e+00
0.000000e+00 0.000000e+00 0.000000e+00
0.000000e+00 0.000000e+00 0.000000e+00
0.000000e+00 0.000000e+00 0.000000e+00
0.000000e+00 0.000000e+00 0.000000e+00
0.000000e+00 0.000000e+00 0.000000e+00
0.000000e+00 0.000000e+00 0.000000e+00
0.000000e+00 0.000000e+00 0.000000e+00
0.000000e+00 0.000000e+00 0.000000e+00
0.000000e+00 0.000000e+00 0.000000e+00
0.000000e+00 0.000000e+00 0.000000e+00
0.000000e+00 0.000000e+00 0.000000e+00
0.000000e+00 0.000000e+00 0.000000e+00
0.000000e+00 0.000000e+00 0.000000e+00
0.000000e+00 0.000000e+00 0.000000e+00
0.000000e+00 0.000000e+00 0.000000e+00
0.000000e+00 0.000000e+00 0.000000e+00
0.000000e+00 0.000000e+00 0.000000e+00
0.000000e+00 0.000000e+00 0.000000e+00
0.000000e+00 0.000000e+00 0.000000e+00
0.000000e+00 0.000000e+00 0.000000e+00
0.000000e+00 0.000000e+00 0.000000e+00
0.000000e+00 0.000000e+00 0.000000e+00
0.000000e+00 0.000000e+00 0.000000e+00
0.000000e+00 0.000000e+00 0.000000e+00
0.000000e+00 0.000000e+00 0.000000e+00
0.000000e+00 0.000000e+00 0.000000e+00
0.000000e+00 0.000000e+00 0.000000e+00
0.000000e+00 0.000000e+00 0.000000e+00
0.000000e+00 0.000000e+00 0.000000e+00
0.000000e+00 0.000000e+00 0.000000e+00
0.000000e+00 0.000000e+00 0.000000e+00
0.000000e+00 0.000000e+00 0.000000e+00
0.000000e+00 0.000000e+00 0.000000e+00
0.000000e+00 0.000000e+00 0.000000e+00
0.000000e+00 0.000000e+00 0.000000e+00
0.000000e+00 0.000000e+00 0.000000e+00
0.000000e+00 0.000000e+00 0.000000e+00
0.000000e+00 0.000000e+00 0.000000e+00
0.000000e+00 0.000000e+00 0.000000e+00
0.000000e+00 0.000000e+00 0.000000e+00
0.000000e+00 0.000000e+00 0.000000e+00
0.000000e+00 0.000000e+00 0.000000e+00
0.000000e+00 0.000000e+00 0.000000e+00
0.000000e+00 0.000000e+00 0.000000e+00
0.000000e+00 0.000000e+00 0.000000e+00
0.000000e+00 0.000000e+00 0.000000e+00
0.000000e+00 0.000000e+00 0.000000e+00
0.000000e+00 0.000000e+00 0.000000e+00
0.000000e+00 0.000000e+00 0.000000e+00
0.000000e+00 0.000000e+00 0.000000e+00
0.000000e+00 0.000000e+00 0.000000e+00
0.000000e+00 0.000000e+00 0.000000e+00
0.000000e+00 0.000000e+00 0.000000e+00
0.000000e+00 0.000000e+00 0.000000e+00
0.000000e+00 0.000000e+00 0.000000e+00
0.000000e+00 0.000000e+00 0.000000e+00
0.000000e+00 0.000000e+00 0.000000e+00
0.000000e+00 0.000000e+00 0.000000e+00
0.000000e+00 0.000000e+00 0.000000e+00
0.000000e+00 0.000000e+00 0.000000e+00
0.000000e+00 0.000000e+00 0.000000e+00
0.000000e+00 0.000000e+00 0.000000e+00
0.000000e+00 0.000000e+00 0.000000e+00
0.000000e+00 0.000000e+00 0.000000e+00
0.000000e+00 0.000000e+00 0.000000e+00
0.000000e+00 0.000000e+00 0.000000e+00
0.000000e+00 0.000000e+00 0.000000e+00
0.000000e+00 0.000000e+00 0.000000e+00
0.000000e+00 0.000000e+00 0.000000e+00
0.000000e+00 0.000000e+00 0.000000e+00
0.000000e+00 0.000000e+00 0.000000e+00
0.000000e+00 0.000000e+00 0.000000e+00
0.000000e+00 0.000000e+00 0.000000e+00
0.000000e+00 0.000000e+00 0.000000e+00
0.000000e+00 0.000000e+00 0.000000e+00
0.000000e+00 0.000000e+00 0.000000e+00
0.000000e+00 0.000000e+00 0.000000e+00
0.000000e+00 0.000000e+00 0.000000e+00
0.000000e+00 0.000000e+00 0.000000e+00
0.000000e+00 0.000000e+00 0.000000e+00
0.000000e+00 0.000000e+00 0.000000e+00
0.000000e+00 0.000000e+00 0.000000e+00
0.000000e+00 0.000000e+00 0.000000e+00
0.000000e+00 0.000000e+00 0.000000e+00
0.000000e+00 0.000000e+00 0.000000e+00
0.000000e+00 0.000000e+00 0.000000e+00
0.000000e+00 0.000000e+00 0.000000e+00
0.000000e+00 0.000000e+00 0.000000e+00
0.000000e+00 0.000000e+00 0.000000e+00
0.000000e+00 0.000000e+00 0.000000e+00
0.000000e+00 0.000000e+00 0.000000e+00
0.000000e+00 0.000000e+00 0.000000e+00
0.000000e+00 0.000000e+00 0.000000e+00
0.000000e+00 0.000000e+00 0.000000e+00
0.000000e+00 0.000000e+00 0.000000e+00
0.000000e+00 0.000000e+00 0.000000e+00
0.000000e+00 0.000000e+00 0.000000e+00
0.000000e+00 0.000000e+00 0.000000e+00
0.000000e+00 0.000000e+00 0.000000e+00
0.000000e+00 0.000000e+00 0.000000e+00
0.000000e+00 0.000000e+00 0.000000e+00
0.000000e+00 0.000000e+00 0.000000e+00
0.000000e+00 0.000000e+00 0.000000e+00
0.000000e+00 0.000000e+00 0.000000e+00
0.000000e+00 0.000000e+00 0.000000e+00
0.000000e+00 0.000000e+00 0.000000e+00
0.000000e+00 0.000000e+00 0.000000e+00
0.000000e+00 0.000000e+00 0.000000e+00
0.000000e+00 0.000000e+00 0.000000e+00
0.000000e+00 0.000000e+00 0.000000e+00
0.000000e+00 0.000000e+00 0.000000e+00
0.000000e+00 0.000000e+00 0.000000e+00
0.000000e+00 0.000000e+00 0.000000e+00
0.000000e+00 0.000000e+00 0.000000e+00
0.000000e+00 0.000000e+00 0.000000e+00
0.000000e+00 0.000000e+00 0.000000e+00
0.000000e+00 0.000000e+00 0.000000e+00
0.000000e+00 0.000000e+00 0.000000e+00
0.000000e+00 0.000000e+00 0.000000e+00
0.000000e+00 0.000000e+00 0.000000e+00
0.000000e+00 0.000000e+00 0.000000e+00
0.000000e+00 0.000000e+00 0.000000e+00
0.000000e+00 0.000000e+00 0.000000e+00
0.000000e+00 0.000000e+00 0.000000e+00
0.000000e+00 0.000000e+00 0.000000e+00
0.000000e+00 0.000000e+00 0.000000e+00
0.000000e+00 0.000000e+00 0.000000e+00
0.000000e+00 0.000000e+00 0.000000e+00
0.000000e+00 0.000000e+00 0.000000e+00
0.000000e+00 0.000000e+00 0.000000e+00
0.000000e+00 0.000000e+00 0.000000e+00
0.000000e+00 0.000000e+00 0.000000e+00
0.000000e+00 0.000000e+00 0.000000e+00
0.000000e+00 0.000000e+00 0.000000e+00
0.000000e+00 0.000000e+00 0.000000e+00
0.000000e+00 0.000000e+00 0.000000e+00
0.000000e+00 0.000000e+00 0.000000e+00
0.000000e+00 0.000000e+00 0.000000e+00
0.000000e+00 0.000000e+00 0.000000e+00
0.000000e+00 0.000000e+00 0.000000e+00
0.000000e+00 0.000000e+00 0.000000e+00
0.000000e+00 0.000000e+00 0.000000e+00
0.000000e+00 0.000000e+00 0.000000e+00
0.000000e+00 0.000000e+00 0.000000e+00
0.000000e+00 0.000000e+00 0.000000e+00
0.000000e+00 0.000000e+00 0.000000e+00
0.000000e+00 0.000000e+00 0.000000e+00
0.000000e+00 0.000000e+00 0.000000e+00
0.000000e+00 0.000000e+00 0.000000e+00
0.000000e+00 0.000000e+00 0.000000e+00
0.000000e+00 0.000000e+00 0.000000e+00
0.000000e+00 0.000000e+00 0.000000e+00
0.000000e+00 0.000000e+00 0.000000e+00
0.000000e+00 0.000000e+00 0.000000e+00
0.000000e+00 0.000000e+00 0.000000e+00
0.000000e+00 0.000000e+00 0.000000e+00
0.000000e+00 0.000000e+00 0.000000e+00
0.000000e+00 0.000000e+00 0.000000e+00
0.000000e+00 0.000000e+00 0.000000e+00
0.000000e+00 0.000000e+00 0.000000e+00
0.000000e+00 0.000000e+00 0.000000e+00
0.000000e+00 0.000000e+00 0.000000e+00
0.000000e+00 0.000000e+00 0.000000e+00
0.000000e+00 0.000000e+00 0.000000e+00
0.000000e+00 0.000000e+00 0.000000e+00
0.000000e+00 0.000000e+00 0.000000e+00
0.000000e+00 0.000000e+00 0.000000e+00
0.000000e+00 0.000000e+00 0.000000e+00
0.000000e+00 0.000000e+00 0.000000e+00
0.000000e+00 0.000000e+00 0.000000e+00
0.000000e+00 0.000000e+00 0.000000e+00
0.000000e+00 0.000000e+00 0.000000e+00
0.000000e+00 0.000000e+00 0.000000e+00
0.000000e+00 0.000000e+00 0.000000e+00
0.000000e+00 0.000000e+00 0.000000e+00
0.000000e+00 0.000000e+00 0.000000e+00
0.000000e+00 0.000000e+00 0.000000e+00
0.000000e+00 0.000000e+00 0.000000e+00
0.000000e+00 0.000000e+00 0.000000e+00
0.000000e+00 0.000000e+00 0.000000e+00
0.000000e+00 0.000000e+00 0.000000e+00
0.000000e+00 0.000000e+00 0.000000e+00
0.000000e+00 0.000000e+00 0.000000e+00
0.000000e+00 0.000000e+00 0.000000e+00
0.000000e+00 0.000000e+00 0.000000e+00
0.000000e+00 0.000000e+00 0.000000e+00
0.000000e+00 0.000000e+00 0.000000e+00
0.000000e+00 0.000000e+00 0.000000e+00
0.000000e+00 0.000000e+00 0.000000e+00
0.000000e+00 0.000000e+00 0.000000e+00
0.000000e+00 0.000000e+00 0.000000e+00
0.000000e+00 0.000000e+00 0.000000e+00
0.000000e+00 0.000000e+00 0.000000e+00
0.000000e+00 0.000000e+00 0.000000e+00
0.000000e+00 0.000000e+00 0.000000e+00
0.000000e+00 0.000000e+00 0.000000e+00
0.000000e+00 0.000000e+00 0.000000e+00
0.000000e+00 0.000000e+00 0.000000e+00
0.000000e+00 0.000000e+00 0.000000e+00
0.000000e+00 0.000000e+00 0.000000e+00
0.000000e+00 0.000000e+00 0.000000e+00
0.000000e+00 0.000000e+00 0.000000e+00
0.000000e+00 0.000000e+00 0.000000e+00
0.000000e+00 0.000000e+00 0.000000e+00
0.000000e+00 0.000000e+00 0.000000e+00
0.000000e+00 0.000000e+00 0.000000e+00
0.000000e+00 0.000000e+00 0.000000e+00
0.000000e+00 0.000000e+00 0.000000e+00
0.000000e+00 0.000000e+00 0.000000e+00
0.000000e+00 0.000000e+00 0.000000e+00
0.000000e+00 0.000000e+00 0.000000e+00
0.000000e+00 0.000000e+00 0.000000e+00
0.000000e+00 0.000000e+00 0.000000e+00
0.000000e+00 0.000000e+00 0.000000e+00
0.000000e+00 0.000000e+00 0.000000e+00
0.000000e+00 0.000000e+00 0.000000e+00
0.000000e+00 0.000000e+00 0.000000e+00
0.000000e+00 0.000000e+00 0.000000e+00
0.000000e+00 0.000000e+00 0.000000e+00
0.000000e+00 0.000000e+00 0.000000e+00
0.000000e+00 0.000000e+00 0.000000e+00
0.000000e+00 0.000000e+00 0.000000e+00
0.000000e+00 0.000000e+00 0.000000e+00
0.000000e+00 0.000000e+00 0.000000e+00
0.000000e+00 0.000000e+00 0.000000e+00
0.000000e+00 0.000000e+00 0.000000e+00
0.000000e+00 0.000000e+00 0.000000e+00
0.000000e+00 0.000000e+00 0.000000e+00
0.000000e+00 0.000000e+00 0.000000e+00
0.000000e+00 0.000000e+00 0.000000e+00
0.000000e+00 0.000000e+00 0.000000e+00
0.000000e+00 0.000000e+00 0.000000e+00
0.000000e+00 0.000000e+00 0.000000e+00
0.000000e+00 0.000000e+00 0.000000e+00
0.000000e+00 0.000000e+00 0.000000e+00
0.000000e+00 0.000000e+00 0.000000e+00
0.000000e+00 0.000000e+00 0.000000e+00
0.000000e+00 0.000000e+00 0.000000e+00
0.000000e+00 0.000000e+00 0.000000e+00
0.000000e+00 0.000000e+00 0.000000e+00
0.000000e+00 0.000000e+00 0.000000e+00
0.000000e+00 0.000000e+00 0.000000e+00
0.000000e+00 0.000000e+00 0.000000e+00
0.000000e+00 0.000000e+00 0.000000e+00
0.000000e+00 0.000000e+00 0.000000e+00
0.000000e+00 0.000000e+00 0.000000e+00
0.000000e+00 0.000000e+00 0.000000e+00
0.000000e+00 0.000000e+00 0.000000e+00
0.000000e+00 0.000000e+00 0.000000e+00
0.000000e+00 0.000000e+00 0.000000e+00
0.000000e+00 0.000000e+00 0.000000e+00
0.000000e+00 0.000000e+00 0.000000e+00
0.000000e+00 0.000000e+00 0.000000e+00
0.000000e+00 0.000000e+00 0.000000e+00
0.000000e+00 0.000000e+00 0.000000e+00
0.000000e+00 0.000000e+00 0.000000e+00
0.000000e+00 0.000000e+00 0.000000e+00
0.000000e+00 0.000000e+00 0.000000e+00
0.000000e+00 0.000000e+00 0.000000e+00
0.000000e+00 0.000000e+00 0.000000e+00
0.000000e+00 0.000000e+00 0.000000e+00
0.000000e+00 0.000000e+00 0.000000e+00
0.000000e+00 0.000000e+00 0.000000e+00
0.000000e+00 0.000000e+00 0.000000e+00
0.000000e+00 0.000000e+00 0.000000e+00
0.000000e+00 0.000000e+00 0.000000e+00
0.000000e+00 0.000000e+00 0.000000e+00
0.000000e+00 0.000000e+00 0.000000e+00
0.000000e+00 0.000000e+00 0.000000e+00
0.000000e+00 0.000000e+00 0.000000e+00
0.000000e+00 0.000000e+00 0.000000e+00
0.000000e+00 0.000000e+00 0.000000e+00
0.000000e+00 0.000000e+00 0.000000e+00
0.000000e+00 0.000000e+00 0.000000e+00
0.000000e+00 0.000000e+00 0.000000e+00
0.000000e+00 0.000000e+00 0.000000e+00
0.000000e+00 0.000000e+00 0.000000e+00
0.000000e+00 0.000000e+00 0.000000e+00
0.000000e+00 0.000000e+00 0.000000e+00
0.000000e+00 0.000000e+00 0.000000e+00
0.000000e+00 0.000000e+00 0.000000e+00
0.000000e+00 0.000000e+00 0.000000e+00
0.000000e+00 0.000000e+00 0.000000e+00
0.000000e+00 0.000000e+00 0.000000e+00
0.000000e+00 0.000000e+00 0.000000e+00
0.000000e+00 0.000000e+00 0.000000e+00
0.000000e+00 0.000000e+00 0.000000e+00
0.000000e+00 0.000000e+00 0.000000e+00
0.000000e+00 0.000000e+00 0.000000e+00
0.000000e+00 0.000000e+00 0.000000e+00
0.000000e+00 0.000000e+00 0.000000e+00
0.000000e+00 0.000000e+00 0.000000e+00
0.000000e+00 0.000000e+00 0.000000e+00
0.000000e+00 0.000000e+00 0.000000e+00
0.000000e+00 0.000000e+00 0.000000e+00
0.000000e+00 0.000000e+00 0.000000e+00
0.000000e+00 0.000000e+00 0.000000e+00
0.000000e+00 0.000000e+00 0.000000e+00
0.000000e+00 0.000000e+00 0.000000e+00
0.000000e+00 0.000000e+00 0.000000e+00
0.000000e+00 0.000000e+00 0.000000e+00
0.000000e+00 0.000000e+00 0.000000e+00
0.000000e+00 0.000000e+00 0.000000e+00
0.000000e+00 0.000000e+00 0.000000e+00
0.000000e+00 0.000000e+00 0.000000e+00
0.000000e+00 0.000000e+00 0.000000e+00
0.000000e+00 0.000000e+00 0.000000e+00
0.000000e+00 0.000000e+00 0.000000e+00
0.000000e+00 0.000000e+00 0.000000e+00
0.000000e+00 0.000000e+00 0.000000e+00
0.000000e+00 0.000000e+00 0.000000e+00
0.000000e+00 0.000000e+00 0.000000e+00
0.000000e+00 0.000000e+00 0.000000e+00
0.000000e+00 0.000000e+00 0.000000e+00
0.000000e+00 0.000000e+00 0.000000e+00
0.000000e+00 0.000000e+00 0.000000e+00
0.000000e+00 0.000000e+00 0.000000e+00
0.000000e+00 0.000000e+00 0.000000e+00
0.000000e+00 0.000000e+00 0.000000e+00
0.000000e+00 0.000000e+00 0.000000e+00
0.000000e+00 0.000000e+00 0.000000e+00
0.000000e+00 0.000000e+00 0.000000e+00
0.000000e+00 0.000000e+00 0.000000e+00
0.000000e+00 0.000000e+00 0.000000e+00
0.000000e+00 0.000000e+00 0.000000e+00
0.000000e+00 0.000000e+00 0.000000e+00
0.000000e+00 0.000000e+00 0.000000e+00
0.000000e+00 0.000000e+00 0.000000e+00
0.000000e+00 0.000000e+00 0.000000e+00
0.000000e+00 0.000000e+00 0.000000e+00
0.000000e+00 0.000000e+00 0.000000e+00
0.000000e+00 0.000000e+00 0.000000e+00
0.000000e+00 0.000000e+00 0.000000e+00
0.000000e+00 0.000000e+00 0.000000e+00
0.000000e+00 0.000000e+00 0.000000e+00
0.000000e+00 0.000000e+00 0.000000e+00
0.000000e+00 0.000000e+00 0.000000e+00
0.000000e+00 0.000000e+00 0.000000e+00
0.000000e+00 0.000000e+00 0.000000e+00
0.000000e+00 0.000000e+00 0.000000e+00
0.000000e+00 0.000000e+00 0.000000e+00
0.000000e+00 0.000000e+00 0.000000e+00
0.000000e+00 0.000000e+00 0.000000e+00
0.000000e+00 0.000000e+00 0.000000e+00
0.000000e+00 0.000000e+00 0.000000e+00
0.000000e+00 0.000000e+00 0.000000e+00
0.000000e+00 0.000000e+00 0.000000e+00
0.000000e+00 0.000000e+00 0.000000e+00
0.000000e+00 0.000000e+00 0.000000e+00
0.000000e+00 0.000000e+00 0.000000e+00
0.000000e+00 0.000000e+00 0.000000e+00
0.000000e+00 0.000000e+00 0.000000e+00
0.000000e+00 0.000000e+00 0.000000e+00
0.000000e+00 0.000000e+00 0.000000e+00
0.000000e+00 0.000000e+00 0.000000e+00
0.000000e+00 0.000000e+00 0.000000e+00
0.000000e+00 0.000000e+00 0.000000e+00
0.000000e+00 0.000000e+00 0.000000e+00
0.000000e+00 0.000000e+00 0.000000e+00
0.000000e+00 0.000000e+00 0.000000e+00
0.000000e+00 0.000000e+00 0.000000e+00
0.000000e+00 0.000000e+00 0.000000e+00
0.000000e+00 0.000000e+00 0.000000e+00
0.000000e+00 0.000000e+00 0.000000e+00
0.000000e+00 0.000000e+00 0.000000e+00
0.000000e+00 0.000000e+00 0.000000e+00
0.000000e+00 0.000000e+00 0.000000e+00
0.000000e+00 0.000000e+00 0.000000e+00
0.000000e+00 0.000000e+00 0.000000e+00
0.000000e+00 0.000000e+00 0.000000e+00
0.000000e+00 0.000000e+00 0.000000e+00
0.000000e+00 0.000000e+00 0.000000e+00
0.000000e+00 0.000000e+00 0.000000e+00
0.000000e+00 0.000000e+00 0.000000e+00
0.000000e+00 0.000000e+00 0.000000e+00
0.000000e+00 0.000000e+00 0.000000e+00
0.000000e+00 0.000000e+00 0.000000e+00
0.000000e+00 0.000000e+00 0.000000e+00
0.000000e+00 0.000000e+00 0.000000e+00
0.000000e+00 0.000000e+00 0.000000e+00
0.000000e+00 0.000000e+00 0.000000e+00
0.000000e+00 0.000000e+00 0.000000e+00
0.000000e+00 0.000000e+00 0.000000e+00
0.000000e+00 0.000000e+00 0.000000e+00
0.000000e+00 0.000000e+00 0.000000e+00
0.000000e+00 0.000000e+00 0.000000e+00
0.000000e+00 0.000000e+00 0.000000e+00
0.000000e+00 0.000000e+00 0.000000e+00
0.000000e+00 0.000000e+00 0.000000e+00
0.000000e+00 0.000000e+00 0.000000e+00
0.000000e+00 0.000000e+00 0.000000e+00
0.000000e+00 0.000000e+00 0.000000e+00
0.000000e+00 0.000000e+00 0.000000e+00
0.000000e+00 0.000000e+00 0.000000e+00
0.000000e+00 0.000000e+00 0.000000e+00
0.000000e+00 0.000000e+00 0.000000e+00
0.000000e+00 0.000000e+00 0.000000e+00
0.000000e+00 0.000000e+00 0.000000e+00
0.000000e+00 0.000000e+00 0.000000e+00
0.000000e+00 0.000000e+00 0.000000e+00
0.000000e+00 0.000000e+00 0.000000e+00
0.000000e+00 0.000000e+00 0.000000e+00
0.000000e+00 0.000000e+00 0.000000e+00
0.000000e+00 0.000000e+00 0.000000e+00
0.000000e+00 0.000000e+00 0.000000e+00
0.000000e+00 0.000000e+00 0.000000e+00
0.000000e+00 0.000000e+00 0.000000e+00
0.000000e+00 0.000000e+00 0.000000e+00
0.000000e+00 0.000000e+00 0.000000e+00
0.000000e+00 0.000000e+00 0.000000e+00
0.000000e+00 0.000000e+00 0.000000e+00
0.000000e+00 0.000000e+00 0.000000e+00
0.000000e+00 0.000000e+00 0.000000e+00
0.000000e+00 0.000000e+00 0.000000e+00
0.000000e+00 0.000000e+00 0.000000e+00
0.000000e+00 0.000000e+00 0.000000e+00