# vtk DataFile Version 2.0
Test
ASCII
DATASET UNSTRUCTURED_GRID
POINTS 1812 float
4.302411e+01 3.355092e+02 -2.551255e+02
4.410494e+01 4.023812e+02 -2.489135e+02
6.086041e+01 4.155242e+02 -1.713160e+02
6.086094e+01 3.075254e+02 -1.677417e+02
4.400978e+01 3.355434e+02 -2.552907e+02
4.508716e+01 4.023290e+02 -2.490938e+02
6.157550e+01 4.152837e+02 -1.719723e+02
6.157497e+01 3.076699e+02 -1.684268e+02
1.414658e+01 3.236755e+02 -5.284918e+02
2.411862e+01 2.334404e+02 -5.164111e+02
2.146945e+01 2.359706e+02 -5.747418e+02
8.972524e+00 3.594791e+02 -6.258994e+02
1.514247e+01 3.237494e+02 -5.285442e+02
2.509829e+01 2.336347e+02 -5.164609e+02
2.244822e+01 2.361744e+02 -5.747636e+02
9.971201e+00 3.595232e+02 -6.259258e+02
6.403073e+00 4.502059e+02 -7.246987e+02
8.861762e+00 4.868125e+02 -6.324904e+02
9.715160e+00 4.371743e+02 -5.567893e+02
7.400000e+00 4.501276e+02 -7.246974e+02
9.857582e+00 4.867220e+02 -6.325029e+02
1.071339e+01 4.371363e+02 -5.568352e+02
6.091603e+01 7.082595e+02 -8.358051e+02
6.091269e+01 6.846827e+02 -7.090553e+02
1.653224e+01 5.781081e+02 -7.296752e+02
1.545987e+01 5.910899e+02 -8.680538e+02
6.151988e+01 7.074706e+02 -8.359197e+02
6.152323e+01 6.839084e+02 -7.092220e+02
1.750127e+01 5.778632e+02 -7.297063e+02
1.644419e+01 5.909145e+02 -8.680730e+02
2.119970e+01 5.652642e+02 -6.175256e+02
6.091610e+01 6.556286e+02 -5.955594e+02
2.216330e+01 5.650027e+02 -6.175813e+02
6.151981e+01 6.548614e+02 -5.957760e+02
6.092188e+01 7.219329e+02 -9.635008e+02
2.363081e+01 6.427953e+02 -9.843526e+02
6.151404e+01 7.211298e+02 -9.635671e+02
2.460230e+01 6.425583e+02 -9.843465e+02
3.304044e+01 3.825954e+02 -1.092163e+03
3.785179e+01 4.102873e+02 -1.143340e+03
2.822119e+01 4.955442e+02 -1.090006e+03
1.894944e+01 4.627537e+02 -9.855399e+02
3.403409e+01 3.826336e+02 -1.092057e+03
3.884457e+01 4.103248e+02 -1.143226e+03
2.921481e+01 4.955667e+02 -1.089896e+03
1.994704e+01 4.627821e+02 -9.854767e+02
4.002259e+01 6.568711e+02 -1.216935e+03
2.995980e+01 6.608398e+02 -1.096133e+03
2.765253e+01 5.964421e+02 -1.106961e+03
3.945789e+01 5.482363e+02 -1.196324e+03
4.101474e+01 6.567552e+02 -1.216888e+03
3.094398e+01 6.606641e+02 -1.096110e+03
2.864921e+01 5.964352e+02 -1.106879e+03
4.044965e+01 5.482595e+02 -1.196198e+03
6.090439e+01 5.702080e+02 -3.579349e+02
6.088208e+01 5.072399e+02 -2.435704e+02
3.519214e+01 4.399856e+02 -3.134615e+02
2.622188e+01 4.805239e+02 -4.087676e+02
6.153153e+01 5.695035e+02 -3.582671e+02
6.155384e+01 5.066713e+02 -2.440452e+02
3.617302e+01 4.398665e+02 -3.136153e+02
2.719841e+01 4.803436e+02 -4.088854e+02
1.685618e+01 3.704846e+02 -4.542574e+02
2.282552e+01 5.272275e+02 -5.110962e+02
1.785252e+01 3.705024e+02 -4.543410e+02
2.379539e+01 5.270028e+02 -5.111904e+02
2.929933e+01 3.516969e+02 -3.428550e+02
3.029117e+01 3.517188e+02 -3.429806e+02
2.837866e+01 2.428510e+02 -4.300948e+02
3.652952e+01 2.544929e+02 -3.369879e+02
2.935863e+01 2.430274e+02 -4.301870e+02
3.751254e+01 2.546390e+02 -3.370990e+02
6.089102e+01 1.610602e+02 -3.074071e+02
6.090875e+01 1.308950e+02 -4.165045e+02
6.154489e+01 1.617582e+02 -3.076991e+02
6.152717e+01 1.316551e+02 -4.167040e+02
6.082943e+01 1.068919e+02 -5.293103e+02
6.160648e+01 1.075100e+02 -5.294290e+02
6.074086e+01 1.091533e+02 -5.835982e+02
6.169506e+01 1.094510e+02 -5.836286e+02
9.868509e+00 4.863862e+02 -8.537739e+02
1.086821e+01 4.863663e+02 -8.537883e+02
4.742523e+01 4.300928e+02 -1.222156e+03
6.072177e+01 4.284524e+02 -1.313100e+03
6.072148e+01 5.515058e+02 -1.328676e+03
4.841664e+01 4.301238e+02 -1.222029e+03
6.171414e+01 4.284721e+02 -1.312978e+03
6.171443e+01 5.515262e+02 -1.328560e+03
6.071796e+01 1.361236e+02 -1.276028e+03
6.071849e+01 2.871073e+02 -1.295167e+03
5.183933e+01 3.002655e+02 -1.223566e+03
6.071911e+01 1.315153e+02 -1.157681e+03
6.171796e+01 1.361235e+02 -1.276029e+03
6.171742e+01 2.871131e+02 -1.295121e+03
5.283508e+01 3.003027e+02 -1.223482e+03
6.171680e+01 1.315611e+02 -1.157630e+03
6.071896e+01 6.555145e+02 -1.341796e+03
6.171695e+01 6.554591e+02 -1.341766e+03
6.088585e+01 7.373210e+02 -1.208597e+03
6.081265e+01 7.629522e+02 -1.355269e+03
6.155006e+01 7.365788e+02 -1.208687e+03
6.162326e+01 7.623897e+02 -1.355432e+03
6.090319e+01 7.287788e+02 -1.081719e+03
6.153272e+01 7.280034e+02 -1.081767e+03
1.632136e+01 5.342229e+02 -9.698861e+02
1.732052e+01 5.342211e+02 -9.698452e+02
2.144151e+01 5.663724e+02 -1.037510e+03
2.243856e+01 5.663532e+02 -1.037436e+03
4.634634e+01 3.131481e+02 -1.181095e+03
4.733887e+01 3.132082e+02 -1.180989e+03
6.091277e+01 6.164122e+02 -4.734637e+02
6.152314e+01 6.156668e+02 -4.737317e+02
4.463128e+01 2.687711e+02 -2.690260e+02
4.561604e+01 2.688812e+02 -2.691607e+02
4.596146e+01 2.646231e+02 -1.155028e+03
4.695390e+01 2.646924e+02 -1.154926e+03
6.086212e+01 2.123292e+02 -2.128546e+02
6.157379e+01 2.128141e+02 -2.133629e+02
6.083006e+01 6.498554e+02 -1.470349e+03
6.071799e+01 7.619104e+02 -1.492289e+03
6.182910e+01 6.498992e+02 -1.470350e+03
6.171792e+01 7.619074e+02 -1.492301e+03
8.115928e+01 5.350073e+02 -1.454215e+03
8.215722e+01 5.350341e+02 -1.454157e+03
6.900081e+01 4.105517e+02 -1.439152e+03
6.999742e+01 4.105211e+02 -1.439076e+03
6.046609e+01 2.760957e+02 -1.425447e+03
6.146587e+01 2.760823e+02 -1.425431e+03
6.071796e+01 1.359795e+02 -1.414860e+03
6.171796e+01 1.359802e+02 -1.414862e+03
6.094672e+01 6.455991e+02 -1.591936e+03
6.071910e+01 7.612401e+02 -1.606435e+03
6.194128e+01 6.457033e+02 -1.591939e+03
6.171682e+01 7.613075e+02 -1.606435e+03
9.019345e+01 5.265143e+02 -1.578359e+03
9.119240e+01 5.265544e+02 -1.578337e+03
6.885592e+01 4.013963e+02 -1.565160e+03
6.985104e+01 4.013005e+02 -1.565137e+03
6.022664e+01 2.702567e+02 -1.554268e+03
6.122616e+01 2.702257e+02 -1.554269e+03
6.071796e+01 1.358421e+02 -1.546637e+03
6.171795e+01 1.358447e+02 -1.546639e+03
6.101586e+01 6.428070e+02 -1.710413e+03
6.072047e+01 7.606161e+02 -1.715650e+03
6.200820e+01 6.429306e+02 -1.710415e+03
6.171544e+01 7.607162e+02 -1.715651e+03
9.181947e+01 5.227346e+02 -1.702073e+03
9.281887e+01 5.227689e+02 -1.702068e+03
6.783336e+01 3.967114e+02 -1.690732e+03
6.882617e+01 3.965917e+02 -1.690726e+03
6.011453e+01 2.671404e+02 -1.681695e+03
6.111410e+01 2.671110e+02 -1.681697e+03
6.071796e+01 1.357081e+02 -1.675351e+03
6.171795e+01 1.357122e+02 -1.675352e+03
6.106032e+01 6.408874e+02 -1.829576e+03
6.072146e+01 7.599786e+02 -1.828600e+03
6.205218e+01 6.410147e+02 -1.829578e+03
6.171446e+01 7.600967e+02 -1.828601e+03
9.271815e+01 5.192264e+02 -1.824344e+03
9.371772e+01 5.192559e+02 -1.824342e+03
6.717787e+01 3.937436e+02 -1.815698e+03
6.816998e+01 3.936183e+02 -1.815695e+03
6.005058e+01 2.652861e+02 -1.808339e+03
6.105023e+01 2.652598e+02 -1.808341e+03
6.071796e+01 1.355757e+02 -1.802892e+03
6.171795e+01 1.355805e+02 -1.802893e+03
6.109939e+01 6.392203e+02 -1.950487e+03
6.072155e+01 7.593216e+02 -1.946538e+03
6.209104e+01 6.393492e+02 -1.950489e+03
6.171436e+01 7.594413e+02 -1.946539e+03
9.293161e+01 5.179993e+02 -1.949350e+03
9.393126e+01 5.180261e+02 -1.949349e+03
6.685182e+01 3.920231e+02 -1.941332e+03
6.784360e+01 3.918952e+02 -1.941331e+03
6.001227e+01 2.641277e+02 -1.934922e+03
6.101196e+01 2.641031e+02 -1.934923e+03
6.071796e+01 1.354437e+02 -1.930137e+03
6.171795e+01 1.354490e+02 -1.930138e+03
6.111835e+01 6.381330e+02 -2.075112e+03
6.072143e+01 7.586400e+02 -2.069203e+03
6.210987e+01 6.382629e+02 -2.075113e+03
6.171448e+01 7.587577e+02 -2.069204e+03
9.323127e+01 5.164383e+02 -2.074469e+03
9.423094e+01 5.164640e+02 -2.074468e+03
6.661325e+01 3.906386e+02 -2.067245e+03
6.760489e+01 3.905096e+02 -2.067243e+03
5.998511e+01 2.632565e+02 -2.061482e+03
6.098483e+01 2.632329e+02 -2.061482e+03
6.071796e+01 1.353119e+02 -2.057244e+03
6.171795e+01 1.353175e+02 -2.057244e+03
6.114182e+01 6.369319e+02 -2.202985e+03
6.072116e+01 7.579086e+02 -2.201065e+03
6.213326e+01 6.370625e+02 -2.202986e+03
6.171475e+01 7.580217e+02 -2.201066e+03
9.366481e+01 5.143269e+02 -2.199456e+03
9.466452e+01 5.143506e+02 -2.199454e+03
6.637821e+01 3.892438e+02 -2.193051e+03
6.736960e+01 3.891129e+02 -2.193049e+03
5.996078e+01 2.624653e+02 -2.187779e+03
6.096053e+01 2.624426e+02 -2.187780e+03
6.071797e+01 1.351806e+02 -2.184010e+03
6.171795e+01 1.351864e+02 -2.184011e+03
6.114507e+01 6.362408e+02 -2.334149e+03
6.072012e+01 7.571364e+02 -2.341664e+03
6.213645e+01 6.363718e+02 -2.334150e+03
6.171580e+01 7.572292e+02 -2.341661e+03
9.389594e+01 5.129430e+02 -2.325950e+03
9.489570e+01 5.129645e+02 -2.325949e+03
6.619139e+01 3.880430e+02 -2.318768e+03
6.718254e+01 3.879102e+02 -2.318767e+03
5.993918e+01 2.617465e+02 -2.313612e+03
6.093894e+01 2.617245e+02 -2.313612e+03
6.071797e+01 1.350499e+02 -2.310176e+03
6.171795e+01 1.350559e+02 -2.310176e+03
6.116089e+01 6.352130e+02 -2.459258e+03
6.071935e+01 7.564525e+02 -2.466221e+03
6.215227e+01 6.353441e+02 -2.459259e+03
6.171656e+01 7.565270e+02 -2.466216e+03
9.395291e+01 5.116621e+02 -2.450524e+03
9.495271e+01 5.116820e+02 -2.450527e+03
6.600370e+01 3.869239e+02 -2.443432e+03
6.699471e+01 3.867901e+02 -2.443435e+03
5.992244e+01 2.610707e+02 -2.438629e+03
6.092221e+01 2.610493e+02 -2.438630e+03
6.071797e+01 1.349200e+02 -2.435554e+03
6.171795e+01 1.349262e+02 -2.435554e+03
6.117640e+01 6.336365e+02 -2.580573e+03
6.071921e+01 7.557648e+02 -2.590165e+03
6.216815e+01 6.337647e+02 -2.580575e+03
6.171670e+01 7.558355e+02 -2.590162e+03
9.238486e+01 5.102936e+02 -2.572889e+03
9.338459e+01 5.103116e+02 -2.572904e+03
6.557812e+01 3.858261e+02 -2.566761e+03
6.656928e+01 3.856944e+02 -2.566777e+03
5.994607e+01 2.604244e+02 -2.562701e+03
6.094586e+01 2.604042e+02 -2.562703e+03
6.071797e+01 1.347910e+02 -2.560122e+03
6.171795e+01 1.347972e+02 -2.560121e+03
6.111616e+01 6.324799e+02 -2.698932e+03
6.071914e+01 7.551266e+02 -2.705112e+03
6.210953e+01 6.325948e+02 -2.698934e+03
6.171677e+01 7.551945e+02 -2.705102e+03
8.699187e+01 5.090786e+02 -2.693444e+03
8.799120e+01 5.090936e+02 -2.693477e+03
6.463090e+01 3.848279e+02 -2.688922e+03
6.562316e+01 3.847091e+02 -2.688959e+03
6.006723e+01 2.598390e+02 -2.685911e+03
[...]
POINT_DATA 1812
VECTORS DISPLACEMENT float
1.052596e+00 -6.190628e-02 5.641357e+01
7.072280e-01 9.635037e-02 5.641515e+01
5.551065e-01 9.406740e-03 5.648178e+01
4.510381e-01 2.614246e-01 5.647851e+01
1.054210e+00 -5.167463e-02 5.643167e+01
7.061591e-01 1.005292e-01 5.643669e+01
5.471360e-01 1.567515e-02 5.646537e+01
4.461712e-01 2.695664e-01 5.646260e+01
7.661960e-01 -2.401777e-01 5.636115e+01
6.908151e-01 -3.562652e-01 5.637949e+01
6.914672e-01 -3.058055e-01 5.635253e+01
6.854062e-01 -2.162968e-01 5.626763e+01
7.651488e-01 -2.385365e-01 5.636267e+01
6.921066e-01 -3.559467e-01 5.638382e+01
6.907073e-01 -3.124726e-01 5.634657e+01
6.861820e-01 -2.185977e-01 5.626559e+01
6.485525e-01 -6.454419e-02 5.627201e+01
6.966957e-01 -1.166258e-01 5.629498e+01
7.161491e-01 -1.161835e-01 5.634022e+01
6.501133e-01 -6.528735e-02 5.626800e+01
6.965990e-01 -1.117594e-01 5.628749e+01
7.168318e-01 -1.211042e-01 5.634051e+01
2.893692e-01 -2.294407e-02 5.619154e+01
3.741794e-01 1.993543e-01 5.621744e+01
4.722889e-01 9.866526e-02 5.627794e+01
4.735788e-01 -3.455377e-03 5.621192e+01
2.914177e-01 -2.104847e-02 5.619069e+01
3.747181e-01 2.002798e-01 5.621699e+01
4.729797e-01 1.001008e-01 5.628161e+01
4.727959e-01 -3.908637e-03 5.621148e+01
6.263034e-01 -8.431321e-02 5.628252e+01
4.134841e-01 7.317391e-03 5.629388e+01
6.265815e-01 -8.537278e-02 5.628594e+01
4.130726e-01 1.072042e-02 5.628390e+01
2.730885e-01 2.113561e-01 5.616934e+01
3.927690e-01 8.854251e-02 5.617772e+01
2.696745e-01 2.096302e-01 5.616996e+01
3.950008e-01 9.339953e-02 5.617463e+01
2.416709e-01 -9.105096e-02 5.608901e+01
1.984742e-01 -6.664777e-02 5.606047e+01
3.038115e-01 -3.308005e-02 5.610093e+01
3.294288e-01 -3.955471e-02 5.613403e+01
2.398393e-01 -8.402604e-02 5.608441e+01
1.968867e-01 -6.533270e-02 5.606346e+01
3.013141e-01 -3.174605e-02 5.609777e+01
3.313169e-01 -4.620642e-02 5.613457e+01
2.727563e-01 4.732561e-02 5.607205e+01
2.544375e-01 4.936093e-02 5.612049e+01
3.660747e-01 3.619325e-03 5.611787e+01
2.593216e-01 2.209144e-03 5.607620e+01
2.718890e-01 4.934884e-02 5.607029e+01
2.548895e-01 5.052547e-02 5.612290e+01
3.666701e-01 9.057877e-03 5.611233e+01
2.592531e-01 -8.225191e-04 5.607870e+01
5.421367e-01 -1.034395e-01 5.644392e+01
7.488295e-01 1.719303e-02 5.633937e+01
8.441323e-01 -1.282613e-01 5.637206e+01
8.319995e-01 -1.737383e-01 5.637377e+01
5.394114e-01 -1.124508e-01 5.646076e+01
7.419510e-01 1.930823e-02 5.632370e+01
8.430148e-01 -1.197269e-01 5.637846e+01
8.327651e-01 -1.725450e-01 5.636986e+01
8.339206e-01 -1.455456e-01 5.639732e+01
8.096120e-01 -1.169680e-01 5.633487e+01
8.344991e-01 -1.465578e-01 5.639988e+01
8.098474e-01 -1.096456e-01 5.633239e+01
8.750281e-01 -1.775354e-01 5.643259e+01
8.791640e-01 -1.762960e-01 5.643551e+01
8.335704e-01 -2.511252e-01 5.642108e+01
9.433242e-01 -1.711376e-01 5.647308e+01
8.339560e-01 -2.533967e-01 5.641874e+01
9.441581e-01 -1.685185e-01 5.647452e+01
4.517779e-01 1.808272e-01 5.619792e+01
5.869352e-01 -5.696439e-01 5.641490e+01
4.551065e-01 1.892199e-01 5.620034e+01
5.834057e-01 -5.579816e-01 5.641596e+01
4.169703e-01 -3.607141e-01 5.625562e+01
4.162920e-01 -3.568210e-01 5.624645e+01
5.005581e-01 -2.027163e-01 5.622217e+01
5.104496e-01 -2.306913e-01 5.623628e+01
4.339135e-01 -1.111909e-01 5.622810e+01
4.328434e-01 -1.048667e-01 5.622403e+01
1.863270e-01 -2.768608e-02 5.603940e+01
1.714346e-01 -1.295657e-02 5.602628e+01
2.060059e-01 1.619635e-02 5.604906e+01
1.858760e-01 -2.993649e-02 5.603957e+01
1.731829e-01 -1.367228e-02 5.602698e+01
2.061445e-01 2.013994e-02 5.604666e+01
1.052354e-01 -3.519607e-02 5.595215e+01
1.529628e-01 -2.769741e-02 5.600220e+01
1.708710e-01 -4.915143e-02 5.601812e+01
1.302469e-01 -9.405956e-02 5.594666e+01
1.063195e-01 -3.473608e-02 5.595185e+01
1.501441e-01 -2.594012e-02 5.600038e+01
1.731393e-01 -4.681181e-02 5.601378e+01
1.285024e-01 -1.001650e-01 5.595140e+01
1.969458e-01 4.068388e-02 5.606545e+01
1.956990e-01 4.073883e-02 5.606360e+01
2.291931e-01 7.020394e-02 5.610717e+01
2.021234e-01 4.504394e-02 5.604873e+01
2.295266e-01 6.819286e-02 5.611516e+01
2.014973e-01 4.361622e-02 5.604535e+01
2.764189e-01 5.944651e-02 5.608649e+01
2.779536e-01 5.933547e-02 5.608658e+01
4.144055e-01 9.618553e-03 5.616087e+01
4.138377e-01 8.163465e-03 5.615701e+01
3.492528e-01 4.304271e-03 5.614142e+01
3.506598e-01 4.418109e-03 5.613946e+01
1.787422e-01 -6.681031e-02 5.602781e+01
1.784650e-01 -6.778057e-02 5.602030e+01
4.126655e-01 -2.451546e-02 5.631308e+01
4.168486e-01 -2.405889e-02 5.631857e+01
1.014848e+00 -2.799224e-01 5.650147e+01
1.014561e+00 -3.039333e-01 5.650319e+01
2.041456e-01 -7.764492e-02 5.602376e+01
2.016586e-01 -7.808013e-02 5.601151e+01
4.125115e-01 -7.372685e-01 5.681616e+01
4.020269e-01 -7.250022e-01 5.679350e+01
1.027824e-01 1.402447e-02 5.603490e+01
4.630998e-02 2.929768e-02 5.604594e+01
1.003159e-01 1.469150e-02 5.603615e+01
4.605638e-02 3.146584e-02 5.604141e+01
1.179373e-01 2.451201e-02 5.602267e+01
1.193529e-01 2.185813e-02 5.602257e+01
1.208693e-01 9.821817e-03 5.601674e+01
1.205451e-01 9.868944e-03 5.601642e+01
9.004316e-02 4.842481e-03 5.599984e+01
9.138660e-02 5.973244e-03 5.600175e+01
6.660707e-02 9.773196e-03 5.596777e+01
6.653428e-02 5.636763e-03 5.596583e+01
5.251312e-02 1.021117e-02 5.602876e+01
5.595181e-02 3.650296e-04 5.601831e+01
5.056768e-02 1.114523e-02 5.602117e+01
5.345940e-02 -1.853687e-03 5.602146e+01
5.193117e-02 1.269964e-02 5.601159e+01
5.298853e-02 1.294347e-02 5.601245e+01
5.023993e-02 1.929227e-02 5.601185e+01
4.996171e-02 1.712777e-02 5.601238e+01
4.161046e-02 2.564306e-02 5.600278e+01
4.370934e-02 2.259227e-02 5.600397e+01
8.110412e-03 3.324404e-02 5.598798e+01
8.616305e-03 3.687284e-02 5.599083e+01
1.818845e-02 1.315385e-02 5.601881e+01
1.195040e-02 9.390175e-03 5.601956e+01
1.636718e-02 1.348943e-02 5.601738e+01
1.233141e-02 8.776118e-03 5.602053e+01
2.425188e-02 1.401041e-02 5.600890e+01
2.369469e-02 1.314147e-02 5.600881e+01
1.954059e-02 1.735147e-02 5.600901e+01
2.165214e-02 1.763041e-02 5.600824e+01
2.419417e-02 2.403770e-02 5.600484e+01
2.373962e-02 2.500382e-02 5.600531e+01
5.593727e-02 3.212987e-02 5.600657e+01
5.709269e-02 3.161357e-02 5.600467e+01
1.139763e-02 1.208703e-02 5.601042e+01
1.671356e-02 1.354375e-02 5.601489e+01
1.184097e-02 9.791204e-03 5.601117e+01
1.491423e-02 1.472162e-02 5.601411e+01
1.219828e-02 1.526762e-02 5.600750e+01
1.248874e-02 1.554555e-02 5.600580e+01
1.189697e-02 1.878399e-02 5.600573e+01
1.214704e-02 1.626676e-02 5.600760e+01
1.238596e-02 1.541610e-02 5.600784e+01
1.249629e-02 1.744847e-02 5.600659e+01
2.399073e-03 1.844068e-02 5.601261e+01
2.100620e-03 1.627392e-02 5.601495e+01
2.861583e-03 1.537691e-02 5.600827e+01
1.595589e-04 1.474789e-02 5.600801e+01
2.586325e-03 1.399799e-02 5.600688e+01
2.143670e-03 1.268290e-02 5.600972e+01
5.383623e-03 1.305780e-02 5.600529e+01
4.380505e-03 1.364579e-02 5.600481e+01
7.340506e-03 1.323577e-02 5.600430e+01
7.319382e-03 1.173475e-02 5.600720e+01
8.608996e-03 1.692357e-02 5.600818e+01
9.695568e-03 1.779800e-02 5.600654e+01
1.616396e-02 1.753332e-02 5.600963e+01
1.834283e-02 1.555071e-02 5.601258e+01
-3.703034e-03 9.161660e-03 5.600505e+01
-5.346345e-03 1.286962e-02 5.600565e+01
-3.275252e-03 9.942534e-03 5.600499e+01
-3.309010e-03 1.339897e-02 5.600701e+01
1.506219e-03 1.086497e-02 5.600380e+01
1.502002e-03 1.306408e-02 5.600362e+01
4.130217e-03 1.182349e-02 5.600572e+01
4.609524e-03 1.252289e-02 5.600276e+01
8.676603e-03 9.952274e-03 5.600503e+01
9.061861e-03 7.014235e-03 5.600681e+01
7.325196e-03 6.827971e-03 5.601096e+01
7.832171e-03 1.245801e-02 5.601079e+01
-2.920402e-03 5.991429e-03 5.600229e+01
-2.892605e-03 5.238223e-03 5.600325e+01
-2.672696e-03 6.492224e-03 5.600349e+01
-1.768113e-03 4.862990e-03 5.600452e+01
-1.813409e-03 6.593022e-03 5.600192e+01
-1.109353e-03 5.045832e-03 5.600329e+01
2.756498e-03 3.938034e-03 5.600253e+01
3.296042e-03 5.142855e-03 5.600405e+01
6.630006e-03 9.748792e-03 5.600614e+01
6.764532e-03 6.355909e-03 5.600432e+01
2.203310e-02 -2.261939e-04 5.600933e+01
2.019253e-02 3.982023e-03 5.600887e+01
9.021470e-05 9.607591e-04 5.600053e+01
-1.883046e-03 6.608498e-03 5.600300e+01
1.263216e-04 3.360474e-03 5.600284e+01
-2.331113e-03 5.899348e-03 5.600166e+01
1.911507e-03 4.164913e-03 5.600325e+01
1.137380e-03 4.385933e-03 5.600067e+01
3.799386e-03 4.207823e-03 5.600253e+01
3.574353e-03 2.214083e-03 5.600240e+01
8.787849e-03 -1.555929e-03 5.600441e+01
7.540548e-03 1.214129e-03 5.600311e+01
-1.619942e-04 5.645852e-03 5.600366e+01
8.883493e-04 1.191179e-03 5.600318e+01
2.642534e-03 5.613155e-03 5.600187e+01
2.938989e-03 4.114358e-03 5.600149e+01
2.253284e-03 4.968292e-03 5.600016e+01
2.630168e-03 3.060541e-03 5.600086e+01
2.613849e-03 2.243912e-03 5.600158e+01
2.743064e-03 3.089788e-03 5.600088e+01
2.334708e-03 4.669278e-03 5.600101e+01
2.116406e-03 4.116647e-03 5.600220e+01
-3.457791e-03 5.442107e-03 5.600390e+01
-3.224925e-03 7.927553e-03 5.600197e+01
1.363650e-02 -4.197112e-03 5.600376e+01
1.203127e-02 -3.169087e-03 5.600151e+01
2.577149e-03 4.340296e-03 5.600025e+01
-1.115615e-03 4.679208e-03 5.599995e+01
2.890378e-03 1.941785e-03 5.600084e+01
-1.185196e-03 6.604158e-03 5.600115e+01
2.826212e-03 4.150991e-03 5.599946e+01
2.932192e-03 3.642154e-03 5.600103e+01
4.526335e-03 5.195539e-03 5.600066e+01
3.821928e-03 4.622915e-03 5.599912e+01
6.354688e-03 2.332379e-03 5.599639e+01
7.589030e-03 1.697944e-03 5.600199e+01
-8.107868e-03 4.500058e-03 5.600014e+01
-8.513487e-03 5.362798e-03 5.599607e+01
-9.414024e-04 6.003089e-03 5.600072e+01
3.641007e-03 1.288531e-03 5.600071e+01
5.823136e-05 5.895299e-03 5.599931e+01
1.744434e-03 7.502747e-04 5.599914e+01
4.013652e-03 4.237329e-03 5.600140e+01
2.383627e-03 3.451616e-03 5.599857e+01
5.644462e-03 -2.089520e-04 5.600076e+01
8.189990e-03 1.011524e-03 5.600006e+01
3.033064e-03 4.701714e-03 5.600140e+01
2.646939e-03 4.034664e-03 5.600016e+01
6.591557e-03 9.652499e-03 5.600298e+01
7.364745e-03 5.373035e-03 5.600619e+01
2.105181e-04 -4.732781e-05 5.599767e+01
-2.336853e-03 6.743203e-03 5.600008e+01
-5.219242e-04 2.400204e-03 5.600183e+01
-5.597656e-04 5.761405e-03 5.599887e+01
9.678578e-04 3.138832e-03 5.599998e+01
2.456202e-03 2.938881e-03 5.599983e+01
-7.629103e-04 2.291292e-03 5.599936e+01
-8.217591e-04 1.094924e-04 5.600013e+01
-2.125764e-03 -2.042685e-03 5.600017e+01
-6.430069e-04 -2.153155e-04 5.600018e+01
1.060704e-02 -5.379040e-03 5.600562e+01
1.137361e-02 -3.556628e-03 5.600411e+01
2.022107e-04 1.209375e-03 5.600113e+01
2.822314e-03 1.638168e-03 5.599728e+01
-3.527340e-04 3.731405e-03 5.599923e+01
3.553125e-03 9.667034e-04 5.600110e+01
6.019162e-04 -5.967181e-04 5.600109e+01
1.790345e-04 -2.372315e-03 5.599906e+01
3.087991e-04 -3.834342e-04 5.599862e+01
2.134341e-03 4.265246e-04 5.600139e+01
1.869158e-03 -2.064415e-04 5.599714e+01
1.509961e-04 -6.023805e-04 5.599765e+01
-2.455243e-02 2.753531e-03 5.600517e+01
-2.183602e-02 1.441029e-03 5.600411e+01
7.147741e-04 3.543111e-03 5.599776e+01
-6.807318e-04 5.710219e-03 5.600162e+01
-1.273752e-03 6.006822e-03 5.599828e+01
-2.949937e-03 7.714350e-04 5.600109e+01
4.992235e-03 5.661733e-03 5.599896e+01
3.169978e-03 5.686451e-03 5.599800e+01
1.916679e-03 2.556780e-03 5.600194e+01
-1.060000e-03 2.119355e-03 5.599824e+01
-1.827392e-03 8.236877e-03 5.600066e+01
-1.150147e-03 5.823946e-03 5.600010e+01
2.444737e-02 -1.812005e-02 5.597927e+01
2.436609e-02 -1.559514e-02 5.598865e+01
2.804786e-03 5.842362e-03 5.599986e+01
9.085095e-03 6.448636e-03 5.600357e+01
1.150863e-03 3.102237e-03 5.600093e+01
3.775586e-04 4.674761e-05 5.599747e+01
2.210497e-03 5.559993e-03 5.599964e+01
9.091597e-03 6.944941e-03 5.600247e+01
1.890493e-03 4.027016e-03 5.600212e+01
7.718027e-04 -7.369960e-04 5.600143e+01
9.770864e-04 1.771290e-03 5.600189e+01
7.580221e-04 4.358488e-03 5.600093e+01
3.305012e-03 2.891735e-03 5.600393e+01
2.732741e-04 4.430659e-03 5.600213e+01
-3.170776e-03 3.001571e-03 5.600088e+01
1.584047e-03 2.401633e-04 5.600018e+01
-2.610595e-03 1.357474e-03 5.600011e+01
-2.544871e-05 -1.151060e-03 5.600058e+01
9.605704e-04 3.035238e-03 5.600196e+01
1.573271e-03 3.471991e-03 5.599953e+01
3.349146e-03 -1.163415e-04 5.599916e+01
-3.593984e-03 -4.988346e-03 5.600090e+01
3.906048e-03 1.870979e-03 5.600099e+01
-5.270536e-03 -5.381603e-03 5.599917e+01
-5.008440e-03 2.061470e-03 5.599871e+01
-3.954041e-03 2.165239e-03 5.600173e+01
-2.142827e-03 -2.942963e-04 5.600122e+01
1.886315e-03 3.900389e-03 5.600168e+01
-3.217523e-03 -1.079667e-04 5.599922e+01
2.382581e-04 3.734531e-03 5.600017e+01
2.062834e-03 2.380369e-03 5.600014e+01
9.302541e-04 6.414148e-04 5.599946e+01
1.955957e-04 6.466352e-03 5.600164e+01
-5.841771e-03 4.499770e-03 5.599945e+01
-3.554965e-04 7.365505e-03 5.600075e+01
-7.050828e-03 2.530368e-03 5.600005e+01
3.402273e-03 1.498950e-03 5.600187e+01
3.754421e-03 3.899630e-03 5.599995e+01
-3.677968e-03 -2.919128e-03 5.599481e+01
-1.078999e-03 8.833340e-03 5.599307e+01
-3.510723e-03 -2.558949e-03 5.599655e+01
6.974804e-04 9.778962e-03 5.599347e+01
-8.164483e-04 2.659072e-03 5.600164e+01
-6.311251e-06 1.768787e-04 5.600342e+01
6.781628e-02 2.752852e-02 5.602436e+01
1.217165e-01 5.507453e-02 5.605177e+01
6.821996e-02 2.562484e-02 5.602842e+01
1.200007e-01 5.110790e-02 5.604482e+01
6.236531e-02 2.833125e-02 5.601541e+01
5.995485e-02 2.646935e-02 5.601128e+01
3.861194e-02 2.513193e-02 5.601466e+01
3.988700e-02 2.610231e-02 5.601734e+01
2.722306e-02 1.862384e-02 5.601104e+01
2.721370e-02 1.884054e-02 5.601449e+01
1.723516e-02 1.084064e-02 5.600796e+01
1.851117e-02 1.032684e-02 5.600692e+01
9.698894e-03 7.864493e-03 5.600521e+01
9.870542e-03 8.603950e-03 5.600612e+01
1.102663e-01 7.409685e-02 5.603237e+01
8.664208e-02 5.270995e-02 5.602130e+01
1.050282e-01 7.309826e-02 5.602499e+01
8.540903e-02 5.435958e-02 5.602497e+01
7.645535e-02 3.100856e-02 5.601063e+01
7.725023e-02 3.530230e-02 5.600922e+01
7.237824e-02 4.292299e-02 5.601273e+01
7.183990e-02 4.122918e-02 5.601115e+01
5.768538e-02 2.496882e-02 5.601327e+01
5.847728e-02 2.610038e-02 5.600978e+01
3.566269e-02 2.576324e-02 5.601712e+01
3.838931e-02 2.640170e-02 5.601920e+01
1.566872e-02 1.292163e-02 5.600553e+01
1.610135e-02 1.280612e-02 5.600623e+01
4.464478e-03 1.844674e-02 5.600648e+01
6.156853e-03 1.985590e-02 5.600582e+01
3.018121e-02 1.392148e-02 5.599792e+01
2.949871e-02 1.258406e-02 5.599722e+01
4.287259e-02 2.720204e-02 5.600765e+01
4.454554e-02 2.589083e-02 5.601107e+01
6.832686e-02 3.503144e-02 5.601031e+01
6.690457e-02 3.669017e-02 5.600618e+01
7.406141e-02 6.793085e-02 5.602669e+01
7.213817e-02 6.744256e-02 5.602748e+01
9.450263e-02 4.817974e-02 5.606290e+01
9.519818e-02 5.205351e-02 5.605885e+01
1.423556e-01 5.438641e-02 5.603883e+01
1.394901e-01 5.288690e-02 5.603671e+01
1.147656e-01 4.846162e-02 5.605847e+01
1.144852e-01 4.956741e-02 5.606345e+01
-1.811448e-02 6.388167e-02 5.597907e+01
-1.167315e-03 4.951771e-04 5.597599e+01
1.841073e-02 2.495137e-02 5.598378e+01
3.304343e-02 3.901616e-02 5.599484e+01
-1.567831e-02 6.301445e-02 5.597916e+01
-1.891925e-03 -7.363747e-04 5.597642e+01
1.891565e-02 2.592029e-02 5.598453e+01
3.222225e-02 3.883562e-02 5.599357e+01
1.038529e-02 1.925793e-02 5.600603e+01
1.602686e-02 1.940291e-02 5.599819e+01
-4.487856e-03 1.724661e-02 5.600374e+01
-1.969828e-03 2.582480e-02 5.601496e+01
9.066341e-03 1.779229e-02 5.600165e+01
1.725888e-02 2.145906e-02 5.599747e+01
-4.500570e-03 2.161367e-02 5.600166e+01
-7.881593e-04 2.488315e-02 5.601628e+01
-1.196869e-01 9.514780e-02 5.610106e+01
-1.537455e-02 1.032657e-01 5.604944e+01
-7.418726e-02 2.955166e-02 5.603296e+01
-9.534442e-02 4.014401e-02 5.603858e+01
-1.199811e-01 9.706574e-02 5.609957e+01
-1.679202e-02 1.045030e-01 5.604675e+01
-7.300304e-02 2.968699e-02 5.603584e+01
-9.682930e-02 3.638541e-02 5.603905e+01
-7.433396e-02 -1.325313e-02 5.601911e+01
-1.005181e-01 -2.306778e-02 5.606598e+01
-1.154486e-01 -1.170704e-03 5.607218e+01
-7.611726e-02 -1.775455e-02 5.602536e+01
-9.975412e-02 -2.318490e-02 5.606497e+01
-1.164036e-01 -1.084276e-03 5.607186e+01
-1.693075e-01 4.917241e-02 5.612891e+01
-1.665000e-01 -4.164193e-02 5.613408e+01
-1.701595e-01 4.900983e-02 5.613339e+01
-1.655806e-01 -4.221580e-02 5.612888e+01
-1.275364e-01 -4.793279e-02 5.612226e+01
-1.169284e-01 -8.112550e-02 5.616874e+01
-1.441122e-01 -4.680775e-02 5.615520e+01
-1.200415e-01 -6.591060e-02 5.606964e+01
-1.266475e-01 -4.838763e-02 5.611229e+01
-1.172696e-01 -8.175931e-02 5.617157e+01
-1.443107e-01 -4.575808e-02 5.615607e+01
-1.208320e-01 -6.578738e-02 5.607138e+01
-3.294680e-02 1.727089e-01 5.617106e+01
-4.177471e-01 5.710725e-02 5.620789e+01
-3.427877e-02 1.726848e-01 5.617060e+01
-4.177483e-01 5.762717e-02 5.620444e+01
-2.724979e-02 3.905227e-02 5.600891e+01
-4.536583e-02 2.144163e-02 5.601265e+01
-2.657085e-02 3.935225e-02 5.601026e+01
-4.518908e-02 2.270501e-02 5.601072e+01
-3.259044e-03 2.242348e-02 5.600432e+01
2.671707e-02 2.140836e-02 5.599613e+01
2.248840e-02 1.695734e-02 5.599704e+01
-2.630959e-03 1.949124e-02 5.600408e+01
2.783041e-02 2.158210e-02 5.599892e+01
2.265207e-02 1.712391e-02 5.599453e+01
-7.874604e-03 1.664453e-02 5.601506e+01
-8.404462e-03 1.839902e-02 5.601409e+01
-1.184299e-02 1.378962e-02 5.602272e+01
-2.376611e-02 2.136574e-02 5.602918e+01
-1.245343e-02 1.216860e-02 5.602074e+01
-2.357894e-02 2.251075e-02 5.603723e+01
-2.570376e-01 -1.097764e-01 5.621200e+01
1.340221e-01 4.929339e-02 5.632815e+01
-2.575809e-01 -1.076864e-01 5.621226e+01
1.320373e-01 5.057711e-02 5.632790e+01
-1.159788e-01 -5.088757e-02 5.619621e+01
-1.147726e-01 -5.089168e-02 5.619725e+01
-2.918181e-02 -5.568270e-02 5.601982e+01
-3.009122e-02 -5.376324e-02 5.601536e+01
-4.236812e-02 -1.178620e-01 5.605113e+01
-7.596728e-02 -5.290785e-02 5.604002e+01
-4.080557e-02 -1.166658e-01 5.602285e+01
-4.260699e-02 -1.180602e-01 5.604707e+01
-7.857855e-02 -4.925933e-02 5.604784e+01
-4.421611e-02 -1.143696e-01 5.603576e+01
-2.741827e-01 4.777422e-02 5.606196e+01
-1.379545e-01 -7.284007e-02 5.617835e+01
-1.415056e-01 -1.271115e-02 5.615260e+01
-2.703669e-02 -3.484670e-02 5.610227e+01
-2.724226e-01 4.902773e-02 5.606356e+01
-1.398203e-01 -7.098466e-02 5.617890e+01
-1.373993e-01 -8.409834e-03 5.615083e+01
-2.832424e-02 -3.665499e-02 5.609830e+01
-6.188857e-02 -6.849847e-02 5.610714e+01
-3.923642e-02 -3.672932e-02 5.617219e+01
-6.411904e-02 -7.112753e-02 5.610953e+01
-3.987649e-02 -3.596357e-02 5.617190e+01
-5.614233e-02 -6.126399e-02 5.607662e+01
-5.777935e-02 -6.068600e-02 5.607834e+01
-4.782980e-03 2.151475e-02 5.624105e+01
-2.070802e-01 3.515809e-03 5.615155e+01
2.543866e-02 -7.188889e-02 5.633002e+01
-2.647785e-01 -1.722471e-02 5.624925e+01
-3.075822e-03 1.833775e-02 5.623542e+01
-2.058117e-01 2.142205e-03 5.615238e+01
2.162900e-02 -7.294084e-02 5.633271e+01
-2.655942e-01 -1.486829e-02 5.625137e+01
-2.758937e-01 -2.621527e-02 5.621494e+01
-2.710736e-01 -2.990277e-02 5.620889e+01
-7.644189e-02 9.682687e-02 5.607039e+01
-7.619184e-02 9.492859e-02 5.607087e+01
7.375734e-02 1.219230e-01 5.602120e+01
7.310725e-02 1.227537e-01 5.602047e+01
1.338074e-02 8.435332e-03 5.598806e+01
1.498604e-02 7.960271e-03 5.598663e+01
-1.163402e-02 5.622182e-03 5.599219e+01
-9.135782e-03 6.393700e-03 5.598913e+01
-4.249084e-03 3.702621e-02 5.599632e+01
-2.010150e-03 2.936656e-02 5.599933e+01
-7.468811e-03 4.573636e-03 5.599438e+01
1.139891e-02 -3.268401e-04 5.599346e+01
-9.404091e-03 2.423614e-05 5.599507e+01
1.128759e-02 1.406538e-03 5.599573e+01
-4.453417e-03 6.194154e-03 5.599394e+01
4.124253e-03 8.693629e-03 5.599576e+01
-3.663303e-03 4.101146e-03 5.599477e+01
4.603546e-03 7.178628e-03 5.599647e+01
4.534722e-03 6.705759e-03 5.599378e+01
4.330042e-04 3.622512e-03 5.599629e+01
4.221150e-03 1.091151e-02 5.599259e+01
7.039922e-04 4.153295e-03 5.599710e+01
3.682468e-03 5.632622e-03 5.599825e+01
2.396679e-03 6.072965e-03 5.599681e+01
2.480040e-03 4.430210e-03 5.599546e+01
1.404357e-03 5.380982e-03 5.599856e+01
1.538318e-03 1.955966e-03 5.599749e+01
-1.657699e-03 6.233460e-03 5.599909e+01
1.931257e-03 2.591896e-03 5.599828e+01
-1.736288e-03 4.754754e-03 5.599791e+01
-1.655934e-03 4.616809e-03 5.599683e+01