# vtk DataFile Version 2.0
Test
ASCII
DATASET UNSTRUCTURED_GRID
POINTS 5874 float
4.302424e+01 3.355103e+02 -2.551245e+02
4.356442e+01 3.689423e+02 -2.520172e+02
5.214751e+01 3.652208e+02 -2.108842e+02
5.187665e+01 3.215426e+02 -2.115527e+02
4.400964e+01 3.355423e+02 -2.552917e+02
4.454857e+01 3.689391e+02 -2.521945e+02
5.312695e+01 3.652207e+02 -2.110859e+02
5.285825e+01 3.215814e+02 -2.117397e+02
4.410484e+01 4.023781e+02 -2.489131e+02
5.241787e+01 4.089141e+02 -2.102262e+02
4.508726e+01 4.023321e+02 -2.490941e+02
5.339614e+01 4.088449e+02 -2.104216e+02
6.086540e+01 4.155267e+02 -1.713116e+02
6.086958e+01 3.615115e+02 -1.695058e+02
6.157052e+01 4.152811e+02 -1.719768e+02
6.156634e+01 3.614901e+02 -1.702227e+02
6.086282e+01 3.075261e+02 -1.677397e+02
6.157310e+01 3.076693e+02 -1.684289e+02
1.414657e+01 3.236756e+02 -5.284918e+02
1.912983e+01 2.785737e+02 -5.224505e+02
1.717367e+01 2.881545e+02 -5.613949e+02
1.155938e+01 3.415758e+02 -5.772002e+02
1.514247e+01 3.237494e+02 -5.285442e+02
2.012314e+01 2.786764e+02 -5.225035e+02
1.816817e+01 2.882574e+02 -5.614147e+02
1.255700e+01 3.416379e+02 -5.772304e+02
2.411860e+01 2.334406e+02 -5.164109e+02
2.279380e+01 2.347058e+02 -5.455804e+02
2.509830e+01 2.336346e+02 -5.164611e+02
2.377348e+01 2.349043e+02 -5.456083e+02
2.146896e+01 2.359734e+02 -5.747385e+02
1.521788e+01 2.977377e+02 -6.003221e+02
2.244870e+01 2.361716e+02 -5.747669e+02
1.621281e+01 2.978360e+02 -6.003432e+02
8.972516e+00 3.594794e+02 -6.258993e+02
9.971210e+00 3.595230e+02 -6.259259e+02
7.686816e+00 4.048311e+02 -6.752949e+02
8.486935e+00 4.333956e+02 -6.349702e+02
9.343385e+00 3.983204e+02 -5.913466e+02
8.686583e+00 4.048368e+02 -6.753158e+02
9.486740e+00 4.333996e+02 -6.349896e+02
1.034276e+01 3.983361e+02 -5.913783e+02
6.402486e+00 4.501975e+02 -7.246962e+02
7.631733e+00 4.685005e+02 -6.785989e+02
7.400586e+00 4.501359e+02 -7.247000e+02
8.629475e+00 4.684334e+02 -6.785958e+02
8.862043e+00 4.868150e+02 -6.324875e+02
9.288284e+00 4.619900e+02 -5.946325e+02
9.857301e+00 4.867194e+02 -6.325057e+02
1.028567e+01 4.619325e+02 -5.946764e+02
9.715392e+00 4.371740e+02 -5.567847e+02
1.071317e+01 4.371366e+02 -5.568399e+02
6.091227e+01 7.082566e+02 -8.358053e+02
6.091017e+01 6.964677e+02 -7.724284e+02
3.838428e+01 6.404636e+02 -7.856593e+02
3.811951e+01 6.496140e+02 -8.519348e+02
6.152365e+01 7.074736e+02 -8.359195e+02
6.152575e+01 6.956929e+02 -7.725726e+02
3.931807e+01 6.401107e+02 -7.857183e+02
3.905048e+01 6.492533e+02 -8.519910e+02
6.091316e+01 6.846827e+02 -7.090541e+02
3.865371e+01 6.313242e+02 -7.193784e+02
6.152276e+01 6.839083e+02 -7.092231e+02
3.958101e+01 6.309570e+02 -7.194509e+02
1.653104e+01 5.781023e+02 -7.296689e+02
1.599655e+01 5.846022e+02 -7.988600e+02
1.750248e+01 5.778691e+02 -7.297125e+02
1.697224e+01 5.843857e+02 -7.988941e+02
1.545985e+01 5.910900e+02 -8.680559e+02
1.644421e+01 5.909144e+02 -8.680709e+02
2.120022e+01 5.652638e+02 -6.175167e+02
1.886661e+01 5.716881e+02 -6.735965e+02
3.982281e+01 6.208544e+02 -6.629698e+02
4.098983e+01 6.103781e+02 -6.065575e+02
2.216278e+01 5.650030e+02 -6.175903e+02
1.983165e+01 5.714310e+02 -6.736477e+02
4.074428e+01 6.204754e+02 -6.630554e+02
4.190963e+01 6.100003e+02 -6.066637e+02
6.091589e+01 6.701568e+02 -6.523064e+02
6.152003e+01 6.693837e+02 -6.524999e+02
6.091619e+01 6.556284e+02 -5.955583e+02
6.151973e+01 6.548616e+02 -5.957771e+02
6.092319e+01 7.219338e+02 -9.635007e+02
6.091972e+01 7.150972e+02 -8.996554e+02
4.016732e+01 6.659655e+02 -9.129233e+02
4.221255e+01 6.823110e+02 -9.739208e+02
6.151273e+01 7.211288e+02 -9.635671e+02
6.151620e+01 7.142992e+02 -8.997409e+02
4.108493e+01 6.655722e+02 -9.129813e+02
4.312196e+01 6.818971e+02 -9.739626e+02
1.954761e+01 6.169539e+02 -9.261987e+02
2.052097e+01 6.167251e+02 -9.262142e+02
2.363100e+01 6.427961e+02 -9.843485e+02
2.460210e+01 6.425575e+02 -9.843505e+02
3.304071e+01 3.825956e+02 -1.092165e+03
3.544618e+01 3.964410e+02 -1.117752e+03
2.951614e+01 4.377934e+02 -1.077767e+03
2.599588e+01 4.226748e+02 -1.038862e+03
3.403383e+01 3.826334e+02 -1.092055e+03
3.643927e+01 3.964795e+02 -1.117641e+03
3.050970e+01 4.378285e+02 -1.077659e+03
2.698963e+01 4.227076e+02 -1.038756e+03
3.785207e+01 4.102875e+02 -1.143342e+03
3.303687e+01 4.529132e+02 -1.116676e+03
3.884429e+01 4.103245e+02 -1.143224e+03
3.402931e+01 4.529483e+02 -1.116558e+03
2.822117e+01 4.955421e+02 -1.090006e+03
2.358580e+01 4.791475e+02 -1.037779e+03
2.921483e+01 4.955689e+02 -1.089896e+03
2.458044e+01 4.791759e+02 -1.037680e+03
1.894990e+01 4.627542e+02 -9.855466e+02
1.994658e+01 4.627816e+02 -9.854700e+02
4.002400e+01 6.568728e+02 -1.216953e+03
3.499171e+01 6.588569e+02 -1.156546e+03
3.427097e+01 6.155627e+02 -1.154100e+03
3.974035e+01 6.025211e+02 -1.206649e+03
4.101334e+01 6.567536e+02 -1.216869e+03
3.597885e+01 6.587083e+02 -1.156487e+03
3.526663e+01 6.155632e+02 -1.154007e+03
4.073209e+01 6.025400e+02 -1.206523e+03
2.996268e+01 6.608536e+02 -1.096141e+03
2.880295e+01 6.286093e+02 -1.101558e+03
3.094110e+01 6.606504e+02 -1.096103e+03
2.979981e+01 6.285814e+02 -1.101484e+03
2.765298e+01 5.964440e+02 -1.106966e+03
3.355526e+01 5.723375e+02 -1.151644e+03
2.864876e+01 5.964334e+02 -1.106874e+03
3.454938e+01 5.723491e+02 -1.151537e+03
3.945824e+01 5.482351e+02 -1.196326e+03
4.044930e+01 5.482607e+02 -1.196196e+03
6.090216e+01 5.702062e+02 -3.579355e+02
6.089897e+01 5.387430e+02 -3.007688e+02
4.573106e+01 4.994237e+02 -3.309898e+02
4.349202e+01 5.252915e+02 -3.833887e+02
6.153376e+01 5.695052e+02 -3.582665e+02
6.153695e+01 5.380683e+02 -3.011400e+02
4.668326e+01 4.991618e+02 -3.311470e+02
4.443609e+01 5.249979e+02 -3.835388e+02
6.088264e+01 5.072396e+02 -2.435693e+02
4.796818e+01 4.735408e+02 -2.785859e+02
6.155328e+01 5.066716e+02 -2.440463e+02
4.893236e+01 4.733409e+02 -2.787603e+02
3.519184e+01 4.399809e+02 -3.134599e+02
3.070681e+01 4.602532e+02 -3.611120e+02
3.617332e+01 4.398713e+02 -3.136169e+02
3.168592e+01 4.601066e+02 -3.612529e+02
2.622137e+01 4.805187e+02 -4.087643e+02
2.719893e+01 4.803487e+02 -4.088887e+02
2.153494e+01 4.254867e+02 -4.315165e+02
1.889979e+01 4.538322e+02 -4.827328e+02
2.452312e+01 5.038729e+02 -4.599304e+02
2.252956e+01 4.254405e+02 -4.316092e+02
1.989482e+01 4.537667e+02 -4.828078e+02
2.549748e+01 5.036760e+02 -4.600394e+02
1.685632e+01 3.704846e+02 -4.542558e+02
1.328552e+01 4.038336e+02 -5.055222e+02
1.785238e+01 3.705024e+02 -4.543426e+02
1.428311e+01 4.038152e+02 -5.055893e+02
1.626585e+01 4.821823e+02 -5.339424e+02
1.725888e+01 4.820882e+02 -5.340132e+02
2.282580e+01 5.272268e+02 -5.110917e+02
2.379510e+01 5.270036e+02 -5.111949e+02
1.242194e+01 3.727045e+02 -5.413619e+02
1.550144e+01 3.470757e+02 -4.913732e+02
1.342057e+01 3.727268e+02 -5.414092e+02
1.649743e+01 3.471303e+02 -4.914440e+02
2.929944e+01 3.516967e+02 -3.428541e+02
3.224361e+01 3.958288e+02 -3.281608e+02
3.790370e+01 3.823847e+02 -2.900900e+02
3.616172e+01 3.436042e+02 -2.989893e+02
3.029106e+01 3.517189e+02 -3.429815e+02
3.323422e+01 3.958051e+02 -3.282954e+02
3.889171e+01 3.823729e+02 -2.902440e+02
3.715047e+01 3.436299e+02 -2.991366e+02
3.964826e+01 4.211782e+02 -2.811847e+02
4.063037e+01 4.211030e+02 -2.813573e+02
2.837821e+01 2.428524e+02 -4.300967e+02
2.261500e+01 3.066774e+02 -4.421756e+02
2.776341e+01 3.048913e+02 -3.910520e+02
3.245434e+01 2.486714e+02 -3.835391e+02
2.935907e+01 2.430260e+02 -4.301851e+02
2.360799e+01 3.067553e+02 -4.422645e+02
2.875622e+01 3.049619e+02 -3.911487e+02
3.343533e+01 2.488338e+02 -3.836453e+02
2.307777e+01 3.610916e+02 -3.985549e+02
2.407183e+01 3.611097e+02 -3.986621e+02
3.291265e+01 3.031031e+02 -3.399228e+02
3.390363e+01 3.031707e+02 -3.400385e+02
3.652962e+01 2.544947e+02 -3.369849e+02
3.751244e+01 2.546373e+02 -3.371021e+02
2.688920e+01 4.106578e+02 -3.798380e+02
2.788196e+01 4.106228e+02 -3.799529e+02
2.087285e+01 2.926251e+02 -4.823064e+02
2.186513e+01 2.927163e+02 -4.823906e+02
2.624838e+01 2.381464e+02 -4.732528e+02
2.722871e+01 2.383304e+02 -4.733241e+02
4.660070e+01 1.974199e+02 -3.727835e+02
4.456340e+01 1.869731e+02 -4.233307e+02
4.756210e+01 1.976748e+02 -3.728873e+02
4.552320e+01 1.872411e+02 -4.234144e+02
4.863487e+01 2.078775e+02 -3.222434e+02
4.960412e+01 2.080977e+02 -3.223532e+02
6.089332e+01 1.610574e+02 -3.074086e+02
6.090554e+01 1.459675e+02 -3.619687e+02
6.154260e+01 1.617610e+02 -3.076976e+02
6.153038e+01 1.467167e+02 -3.621886e+02
6.091044e+01 1.308928e+02 -4.165076e+02
6.152548e+01 1.316572e+02 -4.167008e+02
6.091383e+01 1.188499e+02 -4.729040e+02
4.349843e+01 1.786011e+02 -4.731064e+02
6.152209e+01 1.196261e+02 -4.730698e+02
4.445807e+01 1.788753e+02 -4.731690e+02
6.082993e+01 1.068907e+02 -5.293136e+02
4.243414e+01 1.702277e+02 -5.228818e+02
6.160599e+01 1.075113e+02 -5.294256e+02
4.339227e+01 1.705109e+02 -5.229238e+02
4.177284e+01 1.713819e+02 -5.510326e+02
4.111107e+01 1.725388e+02 -5.791729e+02
4.272876e+01 1.716747e+02 -5.510532e+02
4.206572e+01 1.728358e+02 -5.791932e+02
6.073981e+01 1.081054e+02 -5.564863e+02
6.169611e+01 1.083977e+02 -5.564967e+02
6.074047e+01 1.091539e+02 -5.836083e+02
6.169545e+01 1.094503e+02 -5.836185e+02
1.146136e+01 5.141230e+02 -7.271911e+02
1.206105e+01 5.264196e+02 -7.940535e+02
1.245694e+01 5.140294e+02 -7.271977e+02
1.305829e+01 5.263458e+02 -7.940631e+02
8.136302e+00 4.683081e+02 -7.892373e+02
9.133594e+00 4.682348e+02 -7.892419e+02
9.868937e+00 4.863974e+02 -8.537923e+02
1.266069e+01 5.387105e+02 -8.609284e+02
1.086778e+01 4.863550e+02 -8.537699e+02
1.365970e+01 5.386679e+02 -8.609161e+02
4.742563e+01 4.300921e+02 -1.222159e+03
5.407444e+01 4.292724e+02 -1.267635e+03
5.208344e+01 4.895685e+02 -1.265077e+03
4.344245e+01 4.891605e+02 -1.209246e+03
4.841623e+01 4.301245e+02 -1.222027e+03
5.506445e+01 4.292981e+02 -1.267497e+03
5.307187e+01 4.895987e+02 -1.264928e+03
4.443225e+01 4.891957e+02 -1.209108e+03
6.072126e+01 4.284540e+02 -1.313096e+03
6.072313e+01 4.899782e+02 -1.320899e+03
6.171466e+01 4.284704e+02 -1.312982e+03
6.171279e+01 4.900000e+02 -1.320758e+03
6.072285e+01 5.515061e+02 -1.328687e+03
[...]
POINT_DATA 5874
VECTORS DISPLACEMENT float
7.592218e-02 -9.170238e-03 2.800444e+01
7.632660e-02 -1.726340e-02 2.799997e+01
1.051820e-01 -1.740885e-02 2.800448e+01
9.949974e-02 -1.509496e-02 2.801145e+01
7.584579e-02 -9.167438e-03 2.800387e+01
7.628040e-02 -1.729911e-02 2.799938e+01
1.053065e-01 -1.736842e-02 2.800407e+01
9.963244e-02 -1.528968e-02 2.801107e+01
8.122242e-02 -2.134285e-02 2.800163e+01
9.354310e-02 -1.478875e-02 2.801208e+01
8.123942e-02 -2.136896e-02 2.800140e+01
9.377456e-02 -1.448166e-02 2.801173e+01
8.724964e-02 2.765730e-04 2.804413e+01
1.010528e-01 -1.324218e-02 2.803075e+01
8.871744e-02 4.909777e-04 2.804462e+01
1.019465e-01 -1.302366e-02 2.803099e+01
1.088357e-01 -2.095289e-02 2.802896e+01
1.088946e-01 -2.088310e-02 2.802874e+01
3.864530e-02 -5.473154e-03 2.800190e+01
3.898945e-02 -8.864472e-03 2.799928e+01
3.401901e-02 -8.587278e-03 2.799678e+01
3.762987e-02 -3.007981e-03 2.800040e+01
3.872665e-02 -5.451384e-03 2.800184e+01
3.907615e-02 -8.886511e-03 2.799916e+01
3.408284e-02 -8.703092e-03 2.799658e+01
3.768569e-02 -3.098857e-03 2.800036e+01
3.971558e-02 -1.413440e-02 2.799790e+01
3.302912e-02 -1.491429e-02 2.799556e+01
3.980732e-02 -1.416548e-02 2.799780e+01
3.314522e-02 -1.496673e-02 2.799528e+01
2.426002e-02 -1.480850e-02 2.799301e+01
2.847682e-02 -4.229782e-03 2.799425e+01
2.436287e-02 -1.494906e-02 2.799275e+01
2.854899e-02 -4.377198e-03 2.799412e+01
3.429570e-02 1.682192e-03 2.800101e+01
3.434545e-02 1.605927e-03 2.800088e+01
3.187013e-02 3.975369e-03 2.800347e+01
3.678880e-02 6.161168e-03 2.800478e+01
3.826798e-02 3.047342e-03 2.800445e+01
3.191281e-02 3.932222e-03 2.800334e+01
3.681987e-02 6.173212e-03 2.800476e+01
3.831984e-02 3.061532e-03 2.800442e+01
3.095842e-02 5.485404e-03 2.800530e+01
3.346625e-02 7.119333e-03 2.800538e+01
3.099360e-02 5.473779e-03 2.800525e+01
3.350558e-02 7.156455e-03 2.800532e+01
3.419440e-02 8.202943e-03 2.800610e+01
3.398249e-02 7.964820e-03 2.800686e+01
3.422859e-02 8.217308e-03 2.800615e+01
3.403636e-02 8.011821e-03 2.800683e+01
3.779170e-02 5.845334e-03 2.800779e+01
3.784793e-02 5.883453e-03 2.800771e+01
1.871780e-02 1.042777e-02 2.799387e+01
2.090685e-02 9.929686e-03 2.799382e+01
2.077737e-02 8.775944e-03 2.799647e+01
1.914537e-02 7.620643e-03 2.799518e+01
1.873762e-02 1.043615e-02 2.799385e+01
2.092651e-02 9.932550e-03 2.799387e+01
2.080997e-02 8.792709e-03 2.799646e+01
1.915463e-02 7.625697e-03 2.799515e+01
2.330642e-02 1.516402e-02 2.799627e+01
2.210120e-02 1.231518e-02 2.799964e+01
2.329870e-02 1.514466e-02 2.799628e+01
2.212321e-02 1.231162e-02 2.799965e+01
2.449804e-02 1.041225e-02 2.800193e+01
2.275242e-02 7.295373e-03 2.799884e+01
2.454836e-02 1.047107e-02 2.800190e+01
2.277938e-02 7.326079e-03 2.799885e+01
2.064104e-02 5.174773e-03 2.799707e+01
2.066791e-02 5.229212e-03 2.799702e+01
3.152444e-02 1.110870e-02 2.800724e+01
2.721946e-02 1.165988e-02 2.800456e+01
2.493213e-02 1.513653e-02 2.800267e+01
3.060985e-02 1.718806e-02 2.800654e+01
3.160065e-02 1.115080e-02 2.800712e+01
2.727439e-02 1.176926e-02 2.800451e+01
2.498120e-02 1.510849e-02 2.800262e+01
3.070056e-02 1.722411e-02 2.800648e+01
2.686755e-02 1.822988e-02 2.799974e+01
2.688898e-02 1.821624e-02 2.799976e+01
3.018684e-02 2.248886e-02 2.800435e+01
3.024404e-02 2.247481e-02 2.800440e+01
1.540461e-02 7.918859e-03 2.799232e+01
1.644201e-02 8.339587e-03 2.799290e+01
1.735207e-02 6.974319e-03 2.799424e+01
1.590100e-02 6.589069e-03 2.799311e+01
1.541033e-02 7.927406e-03 2.799232e+01
1.648609e-02 8.373822e-03 2.799290e+01
1.739369e-02 6.997809e-03 2.799423e+01
1.593053e-02 6.613274e-03 2.799310e+01
1.832919e-02 5.172828e-03 2.799554e+01
1.834667e-02 5.176555e-03 2.799555e+01
1.639769e-02 4.753758e-03 2.799398e+01
1.641926e-02 4.791880e-03 2.799398e+01
-1.096073e-04 -3.547603e-03 2.798939e+01
-5.379937e-04 -2.397820e-03 2.798943e+01
7.905388e-03 -2.126061e-03 2.799195e+01
8.567088e-03 -2.832684e-03 2.799313e+01
-1.060470e-04 -3.622445e-03 2.798936e+01
-5.146520e-04 -2.483740e-03 2.798941e+01
7.946949e-03 -2.265168e-03 2.799188e+01
8.609637e-03 -2.969102e-03 2.799303e+01
2.627522e-04 -1.257741e-03 2.798957e+01
7.003219e-03 -1.461992e-03 2.799121e+01
2.745571e-04 -1.342549e-03 2.798956e+01
7.054422e-03 -1.592627e-03 2.799112e+01
1.355205e-02 -3.739286e-04 2.799269e+01
1.542828e-02 -6.460196e-04 2.799430e+01
1.358177e-02 -4.753257e-04 2.799266e+01
1.546921e-02 -7.287570e-04 2.799422e+01
1.828616e-02 -1.010669e-03 2.799661e+01
1.834312e-02 -1.106017e-03 2.799654e+01
1.393849e-02 1.293892e-03 2.799252e+01
1.400642e-02 1.799406e-03 2.799222e+01
1.452916e-02 1.495121e-03 2.799234e+01
1.390817e-02 9.444179e-04 2.799227e+01
1.393687e-02 1.282590e-03 2.799247e+01
1.401947e-02 1.847074e-03 2.799226e+01
1.453540e-02 1.485512e-03 2.799235e+01
1.390522e-02 9.347824e-04 2.799223e+01
1.439295e-02 3.108501e-03 2.799228e+01
1.503242e-02 2.340536e-03 2.799256e+01
1.440012e-02 3.090242e-03 2.799229e+01
1.506401e-02 2.397185e-03 2.799251e+01
1.556913e-02 1.532702e-03 2.799272e+01
1.408327e-02 2.940956e-04 2.799216e+01
1.556604e-02 1.536099e-03 2.799268e+01
1.409599e-02 2.826897e-04 2.799212e+01
1.230729e-02 -2.458734e-04 2.799170e+01
1.232370e-02 -3.130832e-04 2.799167e+01
6.268144e-02 1.981508e-02 2.802654e+01
7.215943e-02 1.922012e-02 2.803379e+01
8.643167e-02 5.537052e-03 2.801232e+01
7.169350e-02 7.667175e-03 2.801533e+01
6.303950e-02 2.007599e-02 2.802650e+01
7.277613e-02 1.960772e-02 2.803376e+01
8.655173e-02 5.456167e-03 2.801206e+01
7.182461e-02 7.693580e-03 2.801503e+01
8.917228e-02 9.390533e-03 2.804066e+01
8.681729e-02 3.578686e-03 2.801125e+01
8.998710e-02 9.976270e-03 2.804051e+01
8.694197e-02 3.171954e-03 2.801107e+01
6.481087e-02 -2.426589e-03 2.800625e+01
5.309828e-02 -1.428400e-03 2.801150e+01
6.483116e-02 -2.540923e-03 2.800583e+01
5.307859e-02 -1.800945e-03 2.801126e+01
5.364939e-02 -6.759043e-04 2.801314e+01
5.366867e-02 -8.713924e-04 2.801304e+01
5.002119e-02 -1.734159e-03 2.801284e+01
4.852043e-02 1.866858e-03 2.801124e+01
5.216883e-02 2.675605e-03 2.801311e+01
5.004223e-02 -1.733609e-03 2.801282e+01
4.854179e-02 1.825176e-03 2.801115e+01
5.222009e-02 2.683970e-03 2.801301e+01
4.702649e-02 -2.334486e-03 2.801053e+01
4.371357e-02 1.491527e-03 2.800853e+01
4.706974e-02 -2.384294e-03 2.801039e+01
4.376361e-02 1.436056e-03 2.800841e+01
4.181924e-02 5.971012e-03 2.800990e+01
4.185266e-02 5.933686e-03 2.800970e+01
4.570049e-02 5.829457e-03 2.801259e+01
4.577332e-02 5.839301e-03 2.801244e+01
3.864647e-02 -1.398138e-03 2.800458e+01
4.106234e-02 -4.443947e-03 2.800637e+01
3.872384e-02 -1.408733e-03 2.800455e+01
4.115217e-02 -4.456701e-03 2.800628e+01
5.680345e-02 -4.673053e-03 2.801124e+01
6.012913e-02 -5.133429e-03 2.800677e+01
6.536862e-02 -1.115685e-02 2.800174e+01
5.762511e-02 -8.249966e-03 2.800754e+01
5.675686e-02 -4.797653e-03 2.801126e+01
6.005072e-02 -5.142214e-03 2.800661e+01
6.524015e-02 -1.147288e-02 2.800145e+01
5.750150e-02 -8.273105e-03 2.800730e+01
7.637896e-02 -1.162659e-02 2.800152e+01
7.645798e-02 -1.152713e-02 2.800133e+01
4.988176e-02 -1.331868e-02 2.800636e+01
4.709240e-02 -7.941638e-03 2.800871e+01
5.436997e-02 -6.857346e-03 2.801287e+01
5.384314e-02 -1.295517e-02 2.801118e+01
4.995936e-02 -1.328717e-02 2.800624e+01
4.717071e-02 -7.946261e-03 2.800854e+01
5.442992e-02 -6.889982e-03 2.801280e+01
5.391919e-02 -1.296242e-02 2.801116e+01
5.440794e-02 -3.942743e-03 2.801318e+01
5.442354e-02 -3.926152e-03 2.801307e+01
5.478698e-02 -8.181846e-03 2.801400e+01
5.479938e-02 -8.187237e-03 2.801401e+01
5.668447e-02 -1.096487e-02 2.801518e+01
5.675363e-02 -1.090184e-02 2.801505e+01
5.433553e-02 -3.326400e-03 2.801212e+01
5.432555e-02 -3.158254e-03 2.801205e+01
4.368778e-02 -9.057537e-03 2.800373e+01
4.378242e-02 -9.013149e-03 2.800365e+01
4.401448e-02 -1.383594e-02 2.800182e+01
4.411329e-02 -1.384449e-02 2.800172e+01
5.378097e-02 -1.753928e-02 2.800981e+01
4.889970e-02 -1.852766e-02 2.800393e+01
5.387293e-02 -1.750400e-02 2.800966e+01
4.901591e-02 -1.856505e-02 2.800385e+01
5.994121e-02 -1.639586e-02 2.801561e+01
6.004990e-02 -1.639787e-02 2.801543e+01
6.397806e-02 -2.609895e-02 2.801633e+01
5.465230e-02 -2.462039e-02 2.800898e+01
6.403196e-02 -2.606409e-02 2.801623e+01
5.474616e-02 -2.463880e-02 2.800895e+01
4.680920e-02 -2.517680e-02 2.800342e+01
4.691158e-02 -2.521530e-02 2.800337e+01
3.923311e-02 -2.388118e-02 2.799951e+01
4.368970e-02 -1.873792e-02 2.799915e+01
3.936901e-02 -2.393445e-02 2.799950e+01
4.377713e-02 -1.876407e-02 2.799901e+01
3.625284e-02 -2.611311e-02 2.799636e+01
3.564155e-02 -2.098465e-02 2.799543e+01
3.634470e-02 -2.617334e-02 2.799635e+01
3.571020e-02 -2.095434e-02 2.799521e+01
2.949102e-02 -2.174357e-02 2.799289e+01
2.453333e-02 -2.264844e-02 2.799024e+01
2.961545e-02 -2.173534e-02 2.799272e+01
2.459472e-02 -2.252779e-02 2.798998e+01
3.333984e-02 -2.661793e-02 2.799325e+01
3.338720e-02 -2.647432e-02 2.799305e+01
2.882493e-02 -2.811096e-02 2.799040e+01
2.892637e-02 -2.809062e-02 2.799031e+01
2.920806e-02 8.466538e-03 2.800420e+01
2.372901e-02 5.585036e-03 2.800139e+01
2.923309e-02 8.533109e-03 2.800412e+01
2.376991e-02 5.599188e-03 2.800134e+01
2.645565e-02 3.590355e-03 2.800365e+01
2.650572e-02 3.634566e-03 2.800360e+01
2.243743e-02 2.480173e-03 2.800070e+01
2.299465e-02 4.078890e-03 2.799890e+01
2.248510e-02 2.454596e-03 2.800066e+01
2.302064e-02 4.092874e-03 2.799893e+01
7.858383e-04 -1.273742e-03 2.798944e+01
7.594922e-04 -8.170290e-04 2.798940e+01
5.371245e-03 -1.136752e-03 2.799021e+01
5.533025e-03 -6.754608e-04 2.799046e+01
7.936042e-04 -1.334263e-03 2.798941e+01
7.479127e-04 -8.341754e-04 2.798945e+01
5.378700e-03 -1.236153e-03 2.799019e+01
5.529790e-03 -7.745617e-04 2.799043e+01
2.172664e-03 -6.315396e-04 2.798957e+01
4.801268e-03 -1.001906e-03 2.799008e+01
2.171896e-03 -6.588100e-04 2.798956e+01
4.806218e-03 -1.068178e-03 2.799007e+01
6.475103e-03 7.330813e-04 2.799071e+01
9.862163e-03 1.071077e-03 2.799119e+01
6.481890e-03 7.268106e-04 2.799064e+01
9.867767e-03 1.017002e-03 2.799113e+01
1.171849e-03 -3.704034e-05 2.798963e+01
1.085814e-03 1.539143e-04 2.798928e+01
3.476744e-04 9.028975e-05 2.798920e+01
7.844747e-04 4.667236e-04 2.798975e+01
1.178018e-03 -1.979686e-05 2.798963e+01
1.091696e-03 1.626517e-04 2.798929e+01
3.497733e-04 1.027309e-04 2.798924e+01
7.883226e-04 4.703733e-04 2.798977e+01
1.206892e-03 6.296347e-05 2.798915e+01
5.325119e-04 -2.375314e-04 2.798892e+01
1.208755e-03 7.565051e-05 2.798914e+01
5.344879e-04 -2.645555e-04 2.798896e+01
-6.380717e-04 -4.099035e-04 2.798858e+01
-4.496821e-04 2.098043e-04 2.798894e+01
-6.405044e-04 -3.825792e-04 2.798862e+01
-4.522930e-04 2.179391e-04 2.798895e+01
-4.567221e-04 7.446878e-04 2.798956e+01
-4.545986e-04 7.440257e-04 2.798958e+01
9.887505e-03 1.311648e-03 2.799161e+01
9.730185e-03 9.718247e-04 2.799217e+01
9.900280e-03 1.305585e-03 2.799154e+01
9.725275e-03 9.616812e-04 2.799207e+01
5.777144e-03 1.120982e-03 2.799097e+01
5.769958e-03 1.111370e-03 2.799087e+01
5.436222e-03 9.177619e-04 2.799126e+01
5.425169e-03 9.089928e-04 2.799121e+01
1.231564e-02 8.545430e-04 2.799200e+01
1.301186e-02 1.444826e-03 2.799228e+01
9.353834e-03 6.399406e-04 2.799219e+01
9.288484e-03 1.035256e-03 2.799271e+01
1.234274e-02 8.843360e-04 2.799201e+01
1.302258e-02 1.484561e-03 2.799225e+01
9.358422e-03 6.591012e-04 2.799213e+01
9.267548e-03 1.030721e-03 2.799268e+01
5.732163e-03 8.443769e-04 2.799190e+01
5.724474e-03 8.208780e-04 2.799183e+01
5.919350e-03 1.037608e-03 2.799243e+01
5.911889e-03 1.052678e-03 2.799241e+01
1.371017e-02 4.057399e-03 2.799148e+01
1.441448e-02 5.998908e-03 2.799146e+01
1.461878e-02 4.971866e-03 2.799241e+01
1.392969e-02 3.621700e-03 2.799187e+01
1.373296e-02 4.078286e-03 2.799150e+01
1.442274e-02 6.009404e-03 2.799148e+01
1.462294e-02 4.976462e-03 2.799241e+01
1.395433e-02 3.644177e-03 2.799186e+01
1.506887e-02 4.049866e-03 2.799302e+01
1.508848e-02 4.072672e-03 2.799299e+01
1.983121e-02 2.343700e-03 2.799636e+01
2.045769e-02 3.835030e-03 2.799701e+01
2.121527e-02 2.795646e-03 2.799811e+01
1.994902e-02 1.144434e-03 2.799669e+01
1.986343e-02 2.356031e-03 2.799638e+01
2.048229e-02 3.863139e-03 2.799696e+01
2.125484e-02 2.791794e-03 2.799807e+01
1.998802e-02 1.143456e-03 2.799664e+01
2.087722e-02 6.797236e-04 2.799899e+01
2.090652e-02 6.936583e-04 2.799897e+01
1.247013e-02 3.414213e-03 2.799153e+01
1.351688e-02 2.181875e-03 2.799205e+01
1.247312e-02 3.431163e-03 2.799155e+01
1.352417e-02 2.204182e-03 2.799205e+01
3.529581e-02 8.903232e-03 2.800833e+01
3.851437e-02 9.612563e-03 2.801021e+01
3.533647e-02 8.861749e-03 2.800821e+01
3.859000e-02 9.675533e-03 2.801010e+01
3.315316e-02 8.584006e-03 2.800664e+01
3.320619e-02 8.627829e-03 2.800666e+01
1.848096e-02 1.121924e-03 2.799501e+01
1.851528e-02 1.143631e-03 2.799497e+01
1.694000e-02 9.286556e-04 2.799363e+01
1.697280e-02 8.990855e-04 2.799360e+01
1.755554e-02 2.120941e-03 2.799414e+01
1.863954e-02 2.360489e-03 2.799520e+01
1.757117e-02 2.143756e-03 2.799414e+01
1.865055e-02 2.345416e-03 2.799516e+01
1.247205e-02 -2.148442e-04 2.799191e+01
1.558530e-02 6.854948e-04 2.799272e+01
1.250462e-02 -3.102816e-04 2.799184e+01
1.560350e-02 6.656297e-04 2.799270e+01
1.638874e-02 1.796029e-03 2.799331e+01
1.639810e-02 1.812349e-03 2.799327e+01
-1.515100e-03 -8.326170e-04 2.798816e+01
-1.116040e-03 -5.556094e-04 2.798835e+01
-1.043837e-03 -8.918349e-04 2.798858e+01
-1.199880e-03 -9.341467e-04 2.798845e+01
-1.528995e-03 -8.375429e-04 2.798815e+01
-1.120372e-03 -5.696452e-04 2.798840e+01
-1.057058e-03 -9.213114e-04 2.798857e+01
-1.208067e-03 -9.552360e-04 2.798847e+01
-4.528044e-04 -1.097882e-03 2.798876e+01
-4.511728e-04 -1.117750e-03 2.798878e+01
8.185259e-04 -1.165424e-03 2.798943e+01
8.186504e-04 -1.231765e-03 2.798941e+01
4.439379e-02 2.256694e-02 2.801658e+01
5.417776e-02 2.568678e-02 2.802170e+01
5.617996e-02 1.231630e-02 2.801629e+01
4.544889e-02 1.428286e-02 2.801482e+01
4.453421e-02 2.262715e-02 2.801654e+01
5.428618e-02 2.573513e-02 2.802162e+01
5.633072e-02 1.244497e-02 2.801608e+01
4.559067e-02 1.436763e-02 2.801469e+01
3.158815e-02 8.720141e-03 2.800530e+01
3.162283e-02 8.781060e-03 2.800524e+01
1.833796e-02 3.905457e-03 2.799552e+01
1.835221e-02 3.966039e-03 2.799548e+01
1.718690e-02 3.380593e-03 2.799413e+01
1.719880e-02 3.425474e-03 2.799409e+01
5.747077e-02 -6.112597e-03 2.801276e+01
6.167730e-02 -7.019753e-03 2.801645e+01
5.741622e-02 -6.065663e-03 2.801252e+01
6.172138e-02 -6.938662e-03 2.801627e+01
7.399760e-02 -5.809398e-03 2.801108e+01
7.396454e-02 -5.847550e-03 2.801062e+01
6.954517e-02 -6.864257e-03 2.801698e+01
6.961927e-02 -6.930306e-03 2.801666e+01
3.690985e-02 2.663402e-02 2.801248e+01
3.701024e-02 1.778734e-02 2.801120e+01
3.694674e-02 2.662299e-02 2.801239e+01
3.714142e-02 1.785789e-02 2.801111e+01
-1.093319e-03 -6.869996e-05 2.798842e+01
-1.104801e-03 -4.486784e-05 2.798846e+01
-1.482591e-03 -6.131890e-04 2.798795e+01
-1.463773e-03 -5.988635e-04 2.798796e+01
-1.207039e-03 -2.303390e-04 2.798792e+01
-8.122063e-04 3.909683e-04 2.798879e+01
-1.214869e-03 -3.008352e-04 2.798790e+01
-8.101728e-04 4.001329e-04 2.798882e+01
1.442627e-03 -1.218568e-04 2.798924e+01
9.637763e-04 -5.383443e-04 2.798906e+01
1.437214e-03 -1.263712e-04 2.798927e+01
9.716811e-04 -5.197822e-04 2.798911e+01
8.809898e-02 -2.604397e-02 2.802800e+01
7.519752e-02 -2.391364e-02 2.802071e+01
6.914046e-02 -1.473077e-02 2.801980e+01
7.813286e-02 -1.485521e-02 2.802336e+01
8.794694e-02 -2.590198e-02 2.802780e+01
7.522374e-02 -2.388068e-02 2.802064e+01
6.928301e-02 -1.464102e-02 2.801955e+01
7.827835e-02 -1.493751e-02 2.802304e+01
-1.057049e-03 -1.775650e-03 2.798799e+01
-1.071663e-03 -1.764194e-03 2.798794e+01
-1.268900e-03 -2.320470e-03 2.798736e+01
-1.268564e-03 -2.293833e-03 2.798739e+01
1.009097e-01 -2.408113e-02 2.802622e+01
8.892084e-02 -1.253030e-02 2.801831e+01
1.007502e-01 -2.405977e-02 2.802593e+01
8.902149e-02 -1.263631e-02 2.801788e+01
7.922217e-02 -1.099715e-02 2.801021e+01
9.992901e-02 6.083439e-03 2.803547e+01
7.940360e-02 -1.131174e-02 2.800973e+01
1.009502e-01 6.274433e-03 2.803570e+01
1.613433e-02 2.909296e-03 2.799321e+01
1.613656e-02 2.918826e-03 2.799322e+01
6.354665e-03 -7.864872e-04 2.799067e+01
6.361974e-03 -8.811024e-04 2.799064e+01
2.692531e-03 1.136368e-03 2.799131e+01
2.804190e-03 1.112721e-03 2.799167e+01
2.687602e-03 1.131810e-03 2.799127e+01
2.807411e-03 1.069475e-03 2.799161e+01
2.735262e-03 1.011196e-03 2.799100e+01
2.731310e-03 1.018439e-03 2.799095e+01
1.059645e-03 1.066354e-03 2.799061e+01
9.710141e-04 1.010781e-03 2.799070e+01
1.058705e-03 1.059717e-03 2.799059e+01
9.687920e-04 9.972212e-04 2.799069e+01
7.591873e-04 1.193884e-03 2.799086e+01
7.404116e-04 1.203666e-03 2.799084e+01
2.720544e-03 8.634999e-04 2.799052e+01
2.704911e-03 8.859930e-04 2.799049e+01
2.484265e-03 6.769173e-04 2.799001e+01
2.489877e-03 6.586411e-04 2.798997e+01
1.126552e-03 8.197511e-04 2.798973e+01
1.036506e-03 9.789579e-04 2.799016e+01
1.114628e-03 8.294459e-04 2.798972e+01
1.037422e-03 9.402415e-04 2.799013e+01
2.498670e-03 7.519547e-04 2.798980e+01
2.499836e-03 7.630931e-04 2.798974e+01
2.368220e-03 4.035266e-04 2.798948e+01
2.355627e-03 3.941081e-04 2.798950e+01
1.253332e-03 6.258645e-04 2.798945e+01
1.149528e-03 6.688832e-04 2.798961e+01
1.256121e-03 6.092044e-04 2.798943e+01
1.142883e-03 6.659934e-04 2.798959e+01
1.737047e-03 2.278231e-04 2.798930e+01
1.738937e-03 2.125531e-04 2.798930e+01
1.428746e-03 2.791319e-04 2.798918e+01
1.424885e-03 2.765159e-04 2.798918e+01
1.316876e-03 4.318197e-04 2.798917e+01
1.391082e-03 4.723439e-04 2.798931e+01
1.316245e-03 4.192128e-04 2.798918e+01
1.391991e-03 4.793703e-04 2.798930e+01
1.259149e-03 2.651160e-04 2.798914e+01
1.256562e-03 2.544593e-04 2.798913e+01
9.210224e-04 7.423780e-05 2.798909e+01
9.182341e-04 7.770292e-05 2.798908e+01
9.873517e-04 4.542677e-04 2.798888e+01
1.155791e-03 4.567565e-04 2.798905e+01
9.754319e-04 4.220547e-04 2.798887e+01
1.154651e-03 4.539029e-04 2.798905e+01
3.012180e-04 9.481157e-04 2.799031e+01
2.564686e-04 1.026952e-03 2.799032e+01
3.004693e-04 9.596229e-04 2.799032e+01
2.621522e-04 1.014043e-03 2.799030e+01
3.707181e-04 9.469557e-04 2.799026e+01
3.684884e-04 9.695951e-04 2.799025e+01
2.944036e-04 8.143602e-04 2.798997e+01
1.234381e-04 8.599075e-04 2.799005e+01
2.995643e-04 8.145703e-04 2.798997e+01
1.170899e-04 8.602362e-04 2.799004e+01
-1.489411e-05 9.012539e-04 2.799003e+01
1.076114e-06 9.108140e-04 2.799004e+01
5.864612e-04 8.830915e-04 2.798997e+01
5.827895e-04 8.853010e-04 2.798997e+01
6.745526e-04 7.773766e-04 2.798971e+01
6.709735e-04 7.867265e-04 2.798969e+01
5.073512e-04 7.104619e-04 2.798960e+01
3.423286e-04 7.556324e-04 2.798978e+01
5.067181e-04 7.031990e-04 2.798957e+01
3.373562e-04 7.503069e-04 2.798977e+01
7.651633e-04 6.504664e-04 2.798955e+01
7.629557e-04 6.489191e-04 2.798956e+01
8.300685e-04 5.102070e-04 2.798945e+01
8.248895e-04 5.170713e-04 2.798942e+01
5.536339e-04 5.146623e-04 2.798939e+01
5.690753e-04 6.138157e-04 2.798948e+01
5.569155e-04 5.107981e-04 2.798940e+01
5.630218e-04 6.042721e-04 2.798948e+01
8.531542e-04 4.382944e-04 2.798931e+01
8.592384e-04 4.582456e-04 2.798930e+01
9.052572e-04 4.615341e-04 2.798919e+01
9.031111e-04 4.649265e-04 2.798919e+01
5.710121e-04 4.604151e-04 2.798922e+01
5.491415e-04 4.652875e-04 2.798930e+01
5.604416e-04 4.445213e-04 2.798920e+01
5.370806e-04 4.710484e-04 2.798928e+01
9.488603e-04 5.280929e-04 2.798910e+01
9.464591e-04 5.306530e-04 2.798907e+01
9.542348e-04 5.931890e-04 2.798901e+01
9.452759e-04 5.919153e-04 2.798902e+01
7.710201e-04 5.769535e-04 2.798918e+01
6.394452e-04 4.869299e-04 2.798917e+01
7.552650e-04 5.863304e-04 2.798917e+01
6.327972e-04 4.917879e-04 2.798917e+01
-1.904942e-05 7.241593e-04 2.798979e+01
-2.376557e-04 6.684104e-04 2.798982e+01
-1.611795e-05 7.055083e-04 2.798980e+01
-2.422245e-04 6.786570e-04 2.798983e+01
9.681319e-05 6.653411e-04 2.798975e+01
9.422945e-05 6.717892e-04 2.798973e+01
-4.975429e-05 5.772624e-04 2.798958e+01
-1.676798e-04 5.657860e-04 2.798962e+01
-4.563737e-05 5.810897e-04 2.798958e+01
-1.698754e-04 5.646470e-04 2.798962e+01
-2.453824e-04 5.334831e-04 2.798963e+01