# vtk DataFile Version 2.0
Test
ASCII
DATASET UNSTRUCTURED_GRID
POINTS 1812 float
4.302411e+01 3.355092e+02 -2.551255e+02
4.410494e+01 4.023812e+02 -2.489135e+02
6.086041e+01 4.155242e+02 -1.713160e+02
6.086094e+01 3.075254e+02 -1.677417e+02
4.400978e+01 3.355434e+02 -2.552907e+02
4.508716e+01 4.023290e+02 -2.490938e+02
6.157550e+01 4.152837e+02 -1.719723e+02
6.157497e+01 3.076699e+02 -1.684268e+02
1.414658e+01 3.236755e+02 -5.284918e+02
2.411862e+01 2.334404e+02 -5.164111e+02
2.146945e+01 2.359706e+02 -5.747418e+02
8.972524e+00 3.594791e+02 -6.258994e+02
1.514247e+01 3.237494e+02 -5.285442e+02
2.509829e+01 2.336347e+02 -5.164609e+02
2.244822e+01 2.361744e+02 -5.747636e+02
9.971201e+00 3.595232e+02 -6.259258e+02
6.403073e+00 4.502059e+02 -7.246987e+02
8.861762e+00 4.868125e+02 -6.324904e+02
9.715160e+00 4.371743e+02 -5.567893e+02
7.400000e+00 4.501276e+02 -7.246974e+02
9.857582e+00 4.867220e+02 -6.325029e+02
1.071339e+01 4.371363e+02 -5.568352e+02
6.091603e+01 7.082595e+02 -8.358051e+02
6.091269e+01 6.846827e+02 -7.090553e+02
1.653224e+01 5.781081e+02 -7.296752e+02
1.545987e+01 5.910899e+02 -8.680538e+02
6.151988e+01 7.074706e+02 -8.359197e+02
6.152323e+01 6.839084e+02 -7.092220e+02
1.750127e+01 5.778632e+02 -7.297063e+02
1.644419e+01 5.909145e+02 -8.680730e+02
2.119970e+01 5.652642e+02 -6.175256e+02
6.091610e+01 6.556286e+02 -5.955594e+02
2.216330e+01 5.650027e+02 -6.175813e+02
6.151981e+01 6.548614e+02 -5.957760e+02
6.092188e+01 7.219329e+02 -9.635008e+02
2.363081e+01 6.427953e+02 -9.843526e+02
6.151404e+01 7.211298e+02 -9.635671e+02
2.460230e+01 6.425583e+02 -9.843465e+02
3.304044e+01 3.825954e+02 -1.092163e+03
3.785179e+01 4.102873e+02 -1.143340e+03
2.822119e+01 4.955442e+02 -1.090006e+03
1.894944e+01 4.627537e+02 -9.855399e+02
3.403409e+01 3.826336e+02 -1.092057e+03
3.884457e+01 4.103248e+02 -1.143226e+03
2.921481e+01 4.955667e+02 -1.089896e+03
1.994704e+01 4.627821e+02 -9.854767e+02
4.002259e+01 6.568711e+02 -1.216935e+03
2.995980e+01 6.608398e+02 -1.096133e+03
2.765253e+01 5.964421e+02 -1.106961e+03
3.945789e+01 5.482363e+02 -1.196324e+03
4.101474e+01 6.567552e+02 -1.216888e+03
3.094398e+01 6.606641e+02 -1.096110e+03
2.864921e+01 5.964352e+02 -1.106879e+03
4.044965e+01 5.482595e+02 -1.196198e+03
6.090439e+01 5.702080e+02 -3.579349e+02
6.088208e+01 5.072399e+02 -2.435704e+02
3.519214e+01 4.399856e+02 -3.134615e+02
2.622188e+01 4.805239e+02 -4.087676e+02
6.153153e+01 5.695035e+02 -3.582671e+02
6.155384e+01 5.066713e+02 -2.440452e+02
3.617302e+01 4.398665e+02 -3.136153e+02
2.719841e+01 4.803436e+02 -4.088854e+02
1.685618e+01 3.704846e+02 -4.542574e+02
2.282552e+01 5.272275e+02 -5.110962e+02
1.785252e+01 3.705024e+02 -4.543410e+02
2.379539e+01 5.270028e+02 -5.111904e+02
2.929933e+01 3.516969e+02 -3.428550e+02
3.029117e+01 3.517188e+02 -3.429806e+02
2.837866e+01 2.428510e+02 -4.300948e+02
3.652952e+01 2.544929e+02 -3.369879e+02
2.935863e+01 2.430274e+02 -4.301870e+02
3.751254e+01 2.546390e+02 -3.370990e+02
6.089102e+01 1.610602e+02 -3.074071e+02
6.090875e+01 1.308950e+02 -4.165045e+02
6.154489e+01 1.617582e+02 -3.076991e+02
6.152717e+01 1.316551e+02 -4.167040e+02
6.082943e+01 1.068919e+02 -5.293103e+02
6.160648e+01 1.075100e+02 -5.294290e+02
6.074086e+01 1.091533e+02 -5.835982e+02
6.169506e+01 1.094510e+02 -5.836286e+02
9.868509e+00 4.863862e+02 -8.537739e+02
1.086821e+01 4.863663e+02 -8.537883e+02
4.742523e+01 4.300928e+02 -1.222156e+03
6.072177e+01 4.284524e+02 -1.313100e+03
6.072148e+01 5.515058e+02 -1.328676e+03
4.841664e+01 4.301238e+02 -1.222029e+03
6.171414e+01 4.284721e+02 -1.312978e+03
6.171443e+01 5.515262e+02 -1.328560e+03
6.071796e+01 1.361236e+02 -1.276028e+03
6.071849e+01 2.871073e+02 -1.295167e+03
5.183933e+01 3.002655e+02 -1.223566e+03
6.071911e+01 1.315153e+02 -1.157681e+03
6.171796e+01 1.361235e+02 -1.276029e+03
6.171742e+01 2.871131e+02 -1.295121e+03
5.283508e+01 3.003027e+02 -1.223482e+03
6.171680e+01 1.315611e+02 -1.157630e+03
6.071896e+01 6.555145e+02 -1.341796e+03
6.171695e+01 6.554591e+02 -1.341766e+03
6.088585e+01 7.373210e+02 -1.208597e+03
6.081265e+01 7.629522e+02 -1.355269e+03
6.155006e+01 7.365788e+02 -1.208687e+03
6.162326e+01 7.623897e+02 -1.355432e+03
6.090319e+01 7.287788e+02 -1.081719e+03
6.153272e+01 7.280034e+02 -1.081767e+03
1.632136e+01 5.342229e+02 -9.698861e+02
1.732052e+01 5.342211e+02 -9.698452e+02
2.144151e+01 5.663724e+02 -1.037510e+03
2.243856e+01 5.663532e+02 -1.037436e+03
4.634634e+01 3.131481e+02 -1.181095e+03
4.733887e+01 3.132082e+02 -1.180989e+03
6.091277e+01 6.164122e+02 -4.734637e+02
6.152314e+01 6.156668e+02 -4.737317e+02
4.463128e+01 2.687711e+02 -2.690260e+02
4.561604e+01 2.688812e+02 -2.691607e+02
4.596146e+01 2.646231e+02 -1.155028e+03
4.695390e+01 2.646924e+02 -1.154926e+03
6.086212e+01 2.123292e+02 -2.128546e+02
6.157379e+01 2.128141e+02 -2.133629e+02
6.083006e+01 6.498554e+02 -1.470349e+03
6.071799e+01 7.619104e+02 -1.492289e+03
6.182910e+01 6.498992e+02 -1.470350e+03
6.171792e+01 7.619074e+02 -1.492301e+03
8.115928e+01 5.350073e+02 -1.454215e+03
8.215722e+01 5.350341e+02 -1.454157e+03
6.900081e+01 4.105517e+02 -1.439152e+03
6.999742e+01 4.105211e+02 -1.439076e+03
6.046609e+01 2.760957e+02 -1.425447e+03
6.146587e+01 2.760823e+02 -1.425431e+03
6.071796e+01 1.359795e+02 -1.414860e+03
6.171796e+01 1.359802e+02 -1.414862e+03
6.094672e+01 6.455991e+02 -1.591936e+03
6.071910e+01 7.612401e+02 -1.606435e+03
6.194128e+01 6.457033e+02 -1.591939e+03
6.171682e+01 7.613075e+02 -1.606435e+03
9.019345e+01 5.265143e+02 -1.578359e+03
9.119240e+01 5.265544e+02 -1.578337e+03
6.885592e+01 4.013963e+02 -1.565160e+03
6.985104e+01 4.013005e+02 -1.565137e+03
6.022664e+01 2.702567e+02 -1.554268e+03
6.122616e+01 2.702257e+02 -1.554269e+03
6.071796e+01 1.358421e+02 -1.546637e+03
6.171795e+01 1.358447e+02 -1.546639e+03
6.101586e+01 6.428070e+02 -1.710413e+03
6.072047e+01 7.606161e+02 -1.715650e+03
6.200820e+01 6.429306e+02 -1.710415e+03
6.171544e+01 7.607162e+02 -1.715651e+03
9.181947e+01 5.227346e+02 -1.702073e+03
9.281887e+01 5.227689e+02 -1.702068e+03
6.783336e+01 3.967114e+02 -1.690732e+03
6.882617e+01 3.965917e+02 -1.690726e+03
6.011453e+01 2.671404e+02 -1.681695e+03
6.111410e+01 2.671110e+02 -1.681697e+03
6.071796e+01 1.357081e+02 -1.675351e+03
6.171795e+01 1.357122e+02 -1.675352e+03
6.106032e+01 6.408874e+02 -1.829576e+03
6.072146e+01 7.599786e+02 -1.828600e+03
6.205218e+01 6.410147e+02 -1.829578e+03
6.171446e+01 7.600967e+02 -1.828601e+03
9.271815e+01 5.192264e+02 -1.824344e+03
9.371772e+01 5.192559e+02 -1.824342e+03
6.717787e+01 3.937436e+02 -1.815698e+03
6.816998e+01 3.936183e+02 -1.815695e+03
6.005058e+01 2.652861e+02 -1.808339e+03
6.105023e+01 2.652598e+02 -1.808341e+03
6.071796e+01 1.355757e+02 -1.802892e+03
6.171795e+01 1.355805e+02 -1.802893e+03
6.109939e+01 6.392203e+02 -1.950487e+03
6.072155e+01 7.593216e+02 -1.946538e+03
6.209104e+01 6.393492e+02 -1.950489e+03
6.171436e+01 7.594413e+02 -1.946539e+03
9.293161e+01 5.179993e+02 -1.949350e+03
9.393126e+01 5.180261e+02 -1.949349e+03
6.685182e+01 3.920231e+02 -1.941332e+03
6.784360e+01 3.918952e+02 -1.941331e+03
6.001227e+01 2.641277e+02 -1.934922e+03
6.101196e+01 2.641031e+02 -1.934923e+03
6.071796e+01 1.354437e+02 -1.930137e+03
6.171795e+01 1.354490e+02 -1.930138e+03
6.111835e+01 6.381330e+02 -2.075112e+03
6.072143e+01 7.586400e+02 -2.069203e+03
6.210987e+01 6.382629e+02 -2.075113e+03
6.171448e+01 7.587577e+02 -2.069204e+03
9.323127e+01 5.164383e+02 -2.074469e+03
9.423094e+01 5.164640e+02 -2.074468e+03
6.661325e+01 3.906386e+02 -2.067245e+03
6.760489e+01 3.905096e+02 -2.067243e+03
5.998511e+01 2.632565e+02 -2.061482e+03
6.098483e+01 2.632329e+02 -2.061482e+03
6.071796e+01 1.353119e+02 -2.057244e+03
6.171795e+01 1.353175e+02 -2.057244e+03
6.114182e+01 6.369319e+02 -2.202985e+03
6.072116e+01 7.579086e+02 -2.201065e+03
6.213326e+01 6.370625e+02 -2.202986e+03
6.171475e+01 7.580217e+02 -2.201066e+03
9.366481e+01 5.143269e+02 -2.199456e+03
9.466452e+01 5.143506e+02 -2.199454e+03
6.637821e+01 3.892438e+02 -2.193051e+03
6.736960e+01 3.891129e+02 -2.193049e+03
5.996078e+01 2.624653e+02 -2.187779e+03
6.096053e+01 2.624426e+02 -2.187780e+03
6.071797e+01 1.351806e+02 -2.184010e+03
6.171795e+01 1.351864e+02 -2.184011e+03
6.114507e+01 6.362408e+02 -2.334149e+03
6.072012e+01 7.571364e+02 -2.341664e+03
6.213645e+01 6.363718e+02 -2.334150e+03
6.171580e+01 7.572292e+02 -2.341661e+03
9.389594e+01 5.129430e+02 -2.325950e+03
9.489570e+01 5.129645e+02 -2.325949e+03
6.619139e+01 3.880430e+02 -2.318768e+03
6.718254e+01 3.879102e+02 -2.318767e+03
5.993918e+01 2.617465e+02 -2.313612e+03
6.093894e+01 2.617245e+02 -2.313612e+03
6.071797e+01 1.350499e+02 -2.310176e+03
6.171795e+01 1.350559e+02 -2.310176e+03
6.116089e+01 6.352130e+02 -2.459258e+03
6.071935e+01 7.564525e+02 -2.466221e+03
6.215227e+01 6.353441e+02 -2.459259e+03
6.171656e+01 7.565270e+02 -2.466216e+03
9.395291e+01 5.116621e+02 -2.450524e+03
9.495271e+01 5.116820e+02 -2.450527e+03
6.600370e+01 3.869239e+02 -2.443432e+03
6.699471e+01 3.867901e+02 -2.443435e+03
5.992244e+01 2.610707e+02 -2.438629e+03
6.092221e+01 2.610493e+02 -2.438630e+03
6.071797e+01 1.349200e+02 -2.435554e+03
6.171795e+01 1.349262e+02 -2.435554e+03
6.117640e+01 6.336365e+02 -2.580573e+03
6.071921e+01 7.557648e+02 -2.590165e+03
6.216815e+01 6.337647e+02 -2.580575e+03
6.171670e+01 7.558355e+02 -2.590162e+03
9.238486e+01 5.102936e+02 -2.572889e+03
9.338459e+01 5.103116e+02 -2.572904e+03
6.557812e+01 3.858261e+02 -2.566761e+03
6.656928e+01 3.856944e+02 -2.566777e+03
5.994607e+01 2.604244e+02 -2.562701e+03
6.094586e+01 2.604042e+02 -2.562703e+03
6.071797e+01 1.347910e+02 -2.560122e+03
6.171795e+01 1.347972e+02 -2.560121e+03
6.111616e+01 6.324799e+02 -2.698932e+03
6.071914e+01 7.551266e+02 -2.705112e+03
6.210953e+01 6.325948e+02 -2.698934e+03
6.171677e+01 7.551945e+02 -2.705102e+03
8.699187e+01 5.090786e+02 -2.693444e+03
8.799120e+01 5.090936e+02 -2.693477e+03
6.463090e+01 3.848279e+02 -2.688922e+03
6.562316e+01 3.847091e+02 -2.688959e+03
6.006723e+01 2.598390e+02 -2.685911e+03
[...]
POINT_DATA 1812
VECTORS DISPLACEMENT float
0.000000e+00 0.000000e+00 0.000000e+00
0.000000e+00 0.000000e+00 0.000000e+00
0.000000e+00 0.000000e+00 0.000000e+00
0.000000e+00 0.000000e+00 0.000000e+00
0.000000e+00 0.000000e+00 0.000000e+00
0.000000e+00 0.000000e+00 0.000000e+00
0.000000e+00 0.000000e+00 0.000000e+00
0.000000e+00 0.000000e+00 0.000000e+00
0.000000e+00 0.000000e+00 0.000000e+00
0.000000e+00 0.000000e+00 0.000000e+00
0.000000e+00 0.000000e+00 0.000000e+00
0.000000e+00 0.000000e+00 0.000000e+00
0.000000e+00 0.000000e+00 0.000000e+00
0.000000e+00 0.000000e+00 0.000000e+00
0.000000e+00 0.000000e+00 0.000000e+00
0.000000e+00 0.000000e+00 0.000000e+00
0.000000e+00 0.000000e+00 0.000000e+00
0.000000e+00 0.000000e+00 0.000000e+00
0.000000e+00 0.000000e+00 0.000000e+00
0.000000e+00 0.000000e+00 0.000000e+00
0.000000e+00 0.000000e+00 0.000000e+00
0.000000e+00 0.000000e+00 0.000000e+00
0.000000e+00 0.000000e+00 0.000000e+00
0.000000e+00 0.000000e+00 0.000000e+00
0.000000e+00 0.000000e+00 0.000000e+00
0.000000e+00 0.000000e+00 0.000000e+00
0.000000e+00 0.000000e+00 0.000000e+00
0.000000e+00 0.000000e+00 0.000000e+00
0.000000e+00 0.000000e+00 0.000000e+00
0.000000e+00 0.000000e+00 0.000000e+00
0.000000e+00 0.000000e+00 0.000000e+00
0.000000e+00 0.000000e+00 0.000000e+00
0.000000e+00 0.000000e+00 0.000000e+00
0.000000e+00 0.000000e+00 0.000000e+00
0.000000e+00 0.000000e+00 0.000000e+00
0.000000e+00 0.000000e+00 0.000000e+00
0.000000e+00 0.000000e+00 0.000000e+00
0.000000e+00 0.000000e+00 0.000000e+00
0.000000e+00 0.000000e+00 0.000000e+00
0.000000e+00 0.000000e+00 0.000000e+00
0.000000e+00 0.000000e+00 0.000000e+00
0.000000e+00 0.000000e+00 0.000000e+00
0.000000e+00 0.000000e+00 0.000000e+00
0.000000e+00 0.000000e+00 0.000000e+00
0.000000e+00 0.000000e+00 0.000000e+00
0.000000e+00 0.000000e+00 0.000000e+00
0.000000e+00 0.000000e+00 0.000000e+00
0.000000e+00 0.000000e+00 0.000000e+00
0.000000e+00 0.000000e+00 0.000000e+00
0.000000e+00 0.000000e+00 0.000000e+00
0.000000e+00 0.000000e+00 0.000000e+00
0.000000e+00 0.000000e+00 0.000000e+00
0.000000e+00 0.000000e+00 0.000000e+00
0.000000e+00 0.000000e+00 0.000000e+00
0.000000e+00 0.000000e+00 0.000000e+00
0.000000e+00 0.000000e+00 0.000000e+00
0.000000e+00 0.000000e+00 0.000000e+00
0.000000e+00 0.000000e+00 0.000000e+00
0.000000e+00 0.000000e+00 0.000000e+00
0.000000e+00 0.000000e+00 0.000000e+00
0.000000e+00 0.000000e+00 0.000000e+00
0.000000e+00 0.000000e+00 0.000000e+00
0.000000e+00 0.000000e+00 0.000000e+00
0.000000e+00 0.000000e+00 0.000000e+00
0.000000e+00 0.000000e+00 0.000000e+00
0.000000e+00 0.000000e+00 0.000000e+00
0.000000e+00 0.000000e+00 0.000000e+00
0.000000e+00 0.000000e+00 0.000000e+00
0.000000e+00 0.000000e+00 0.000000e+00
0.000000e+00 0.000000e+00 0.000000e+00
0.000000e+00 0.000000e+00 0.000000e+00
0.000000e+00 0.000000e+00 0.000000e+00
0.000000e+00 0.000000e+00 0.000000e+00
0.000000e+00 0.000000e+00 0.000000e+00
0.000000e+00 0.000000e+00 0.000000e+00
0.000000e+00 0.000000e+00 0.000000e+00
0.000000e+00 0.000000e+00 0.000000e+00
0.000000e+00 0.000000e+00 0.000000e+00
0.000000e+00 0.000000e+00 0.000000e+00
0.000000e+00 0.000000e+00 0.000000e+00
0.000000e+00 0.000000e+00 0.000000e+00
0.000000e+00 0.000000e+00 0.000000e+00
0.000000e+00 0.000000e+00 0.000000e+00
0.000000e+00 0.000000e+00 0.000000e+00
0.000000e+00 0.000000e+00 0.000000e+00
0.000000e+00 0.000000e+00 0.000000e+00
0.000000e+00 0.000000e+00 0.000000e+00
0.000000e+00 0.000000e+00 0.000000e+00
0.000000e+00 0.000000e+00 0.000000e+00
0.000000e+00 0.000000e+00 0.000000e+00
0.000000e+00 0.000000e+00 0.000000e+00
0.000000e+00 0.000000e+00 0.000000e+00
0.000000e+00 0.000000e+00 0.000000e+00
0.000000e+00 0.000000e+00 0.000000e+00
0.000000e+00 0.000000e+00 0.000000e+00
0.000000e+00 0.000000e+00 0.000000e+00
0.000000e+00 0.000000e+00 0.000000e+00
0.000000e+00 0.000000e+00 0.000000e+00
0.000000e+00 0.000000e+00 0.000000e+00
0.000000e+00 0.000000e+00 0.000000e+00
0.000000e+00 0.000000e+00 0.000000e+00
0.000000e+00 0.000000e+00 0.000000e+00
0.000000e+00 0.000000e+00 0.000000e+00
0.000000e+00 0.000000e+00 0.000000e+00
0.000000e+00 0.000000e+00 0.000000e+00
0.000000e+00 0.000000e+00 0.000000e+00
0.000000e+00 0.000000e+00 0.000000e+00
0.000000e+00 0.000000e+00 0.000000e+00
0.000000e+00 0.000000e+00 0.000000e+00
0.000000e+00 0.000000e+00 0.000000e+00
0.000000e+00 0.000000e+00 0.000000e+00
0.000000e+00 0.000000e+00 0.000000e+00
0.000000e+00 0.000000e+00 0.000000e+00
0.000000e+00 0.000000e+00 0.000000e+00
0.000000e+00 0.000000e+00 0.000000e+00
0.000000e+00 0.000000e+00 0.000000e+00
0.000000e+00 0.000000e+00 0.000000e+00
0.000000e+00 0.000000e+00 0.000000e+00
0.000000e+00 0.000000e+00 0.000000e+00
0.000000e+00 0.000000e+00 0.000000e+00
0.000000e+00 0.000000e+00 0.000000e+00
0.000000e+00 0.000000e+00 0.000000e+00
0.000000e+00 0.000000e+00 0.000000e+00
0.000000e+00 0.000000e+00 0.000000e+00
0.000000e+00 0.000000e+00 0.000000e+00
0.000000e+00 0.000000e+00 0.000000e+00
0.000000e+00 0.000000e+00 0.000000e+00
0.000000e+00 0.000000e+00 0.000000e+00
0.000000e+00 0.000000e+00 0.000000e+00
0.000000e+00 0.000000e+00 0.000000e+00
0.000000e+00 0.000000e+00 0.000000e+00
0.000000e+00 0.000000e+00 0.000000e+00
0.000000e+00 0.000000e+00 0.000000e+00
0.000000e+00 0.000000e+00 0.000000e+00
0.000000e+00 0.000000e+00 0.000000e+00
0.000000e+00 0.000000e+00 0.000000e+00
0.000000e+00 0.000000e+00 0.000000e+00
0.000000e+00 0.000000e+00 0.000000e+00
0.000000e+00 0.000000e+00 0.000000e+00
0.000000e+00 0.000000e+00 0.000000e+00
0.000000e+00 0.000000e+00 0.000000e+00
0.000000e+00 0.000000e+00 0.000000e+00
0.000000e+00 0.000000e+00 0.000000e+00
0.000000e+00 0.000000e+00 0.000000e+00
0.000000e+00 0.000000e+00 0.000000e+00
0.000000e+00 0.000000e+00 0.000000e+00
0.000000e+00 0.000000e+00 0.000000e+00
0.000000e+00 0.000000e+00 0.000000e+00
0.000000e+00 0.000000e+00 0.000000e+00
0.000000e+00 0.000000e+00 0.000000e+00
0.000000e+00 0.000000e+00 0.000000e+00
0.000000e+00 0.000000e+00 0.000000e+00
0.000000e+00 0.000000e+00 0.000000e+00
0.000000e+00 0.000000e+00 0.000000e+00
0.000000e+00 0.000000e+00 0.000000e+00
0.000000e+00 0.000000e+00 0.000000e+00
0.000000e+00 0.000000e+00 0.000000e+00
0.000000e+00 0.000000e+00 0.000000e+00
0.000000e+00 0.000000e+00 0.000000e+00
0.000000e+00 0.000000e+00 0.000000e+00
0.000000e+00 0.000000e+00 0.000000e+00
0.000000e+00 0.000000e+00 0.000000e+00
0.000000e+00 0.000000e+00 0.000000e+00
0.000000e+00 0.000000e+00 0.000000e+00
0.000000e+00 0.000000e+00 0.000000e+00
0.000000e+00 0.000000e+00 0.000000e+00
0.000000e+00 0.000000e+00 0.000000e+00
0.000000e+00 0.000000e+00 0.000000e+00
0.000000e+00 0.000000e+00 0.000000e+00
0.000000e+00 0.000000e+00 0.000000e+00
0.000000e+00 0.000000e+00 0.000000e+00
0.000000e+00 0.000000e+00 0.000000e+00
0.000000e+00 0.000000e+00 0.000000e+00
0.000000e+00 0.000000e+00 0.000000e+00
0.000000e+00 0.000000e+00 0.000000e+00
0.000000e+00 0.000000e+00 0.000000e+00
0.000000e+00 0.000000e+00 0.000000e+00
0.000000e+00 0.000000e+00 0.000000e+00
0.000000e+00 0.000000e+00 0.000000e+00
0.000000e+00 0.000000e+00 0.000000e+00
0.000000e+00 0.000000e+00 0.000000e+00
0.000000e+00 0.000000e+00 0.000000e+00
0.000000e+00 0.000000e+00 0.000000e+00
0.000000e+00 0.000000e+00 0.000000e+00
0.000000e+00 0.000000e+00 0.000000e+00
0.000000e+00 0.000000e+00 0.000000e+00
0.000000e+00 0.000000e+00 0.000000e+00
0.000000e+00 0.000000e+00 0.000000e+00
0.000000e+00 0.000000e+00 0.000000e+00
0.000000e+00 0.000000e+00 0.000000e+00
0.000000e+00 0.000000e+00 0.000000e+00
0.000000e+00 0.000000e+00 0.000000e+00
0.000000e+00 0.000000e+00 0.000000e+00
0.000000e+00 0.000000e+00 0.000000e+00
0.000000e+00 0.000000e+00 0.000000e+00
0.000000e+00 0.000000e+00 0.000000e+00
0.000000e+00 0.000000e+00 0.000000e+00
0.000000e+00 0.000000e+00 0.000000e+00
0.000000e+00 0.000000e+00 0.000000e+00
0.000000e+00 0.000000e+00 0.000000e+00
0.000000e+00 0.000000e+00 0.000000e+00
0.000000e+00 0.000000e+00 0.000000e+00
0.000000e+00 0.000000e+00 0.000000e+00
0.000000e+00 0.000000e+00 0.000000e+00
0.000000e+00 0.000000e+00 0.000000e+00
0.000000e+00 0.000000e+00 0.000000e+00
0.000000e+00 0.000000e+00 0.000000e+00
0.000000e+00 0.000000e+00 0.000000e+00
0.000000e+00 0.000000e+00 0.000000e+00
0.000000e+00 0.000000e+00 0.000000e+00
0.000000e+00 0.000000e+00 0.000000e+00
0.000000e+00 0.000000e+00 0.000000e+00
0.000000e+00 0.000000e+00 0.000000e+00
0.000000e+00 0.000000e+00 0.000000e+00
0.000000e+00 0.000000e+00 0.000000e+00
0.000000e+00 0.000000e+00 0.000000e+00
0.000000e+00 0.000000e+00 0.000000e+00
0.000000e+00 0.000000e+00 0.000000e+00
0.000000e+00 0.000000e+00 0.000000e+00
0.000000e+00 0.000000e+00 0.000000e+00
0.000000e+00 0.000000e+00 0.000000e+00
0.000000e+00 0.000000e+00 0.000000e+00
0.000000e+00 0.000000e+00 0.000000e+00
0.000000e+00 0.000000e+00 0.000000e+00
0.000000e+00 0.000000e+00 0.000000e+00
0.000000e+00 0.000000e+00 0.000000e+00
0.000000e+00 0.000000e+00 0.000000e+00
0.000000e+00 0.000000e+00 0.000000e+00
0.000000e+00 0.000000e+00 0.000000e+00
0.000000e+00 0.000000e+00 0.000000e+00
0.000000e+00 0.000000e+00 0.000000e+00
0.000000e+00 0.000000e+00 0.000000e+00
0.000000e+00 0.000000e+00 0.000000e+00
0.000000e+00 0.000000e+00 0.000000e+00
0.000000e+00 0.000000e+00 0.000000e+00
0.000000e+00 0.000000e+00 0.000000e+00
0.000000e+00 0.000000e+00 0.000000e+00
0.000000e+00 0.000000e+00 0.000000e+00
0.000000e+00 0.000000e+00 0.000000e+00
0.000000e+00 0.000000e+00 0.000000e+00
0.000000e+00 0.000000e+00 0.000000e+00
0.000000e+00 0.000000e+00 0.000000e+00
0.000000e+00 0.000000e+00 0.000000e+00
0.000000e+00 0.000000e+00 0.000000e+00
0.000000e+00 0.000000e+00 0.000000e+00
0.000000e+00 0.000000e+00 0.000000e+00
0.000000e+00 0.000000e+00 0.000000e+00
0.000000e+00 0.000000e+00 0.000000e+00
0.000000e+00 0.000000e+00 0.000000e+00
0.000000e+00 0.000000e+00 0.000000e+00
0.000000e+00 0.000000e+00 0.000000e+00
0.000000e+00 0.000000e+00 0.000000e+00
0.000000e+00 0.000000e+00 0.000000e+00
0.000000e+00 0.000000e+00 0.000000e+00
0.000000e+00 0.000000e+00 0.000000e+00
0.000000e+00 0.000000e+00 0.000000e+00
0.000000e+00 0.000000e+00 0.000000e+00
0.000000e+00 0.000000e+00 0.000000e+00
0.000000e+00 0.000000e+00 0.000000e+00
0.000000e+00 0.000000e+00 0.000000e+00
0.000000e+00 0.000000e+00 0.000000e+00
0.000000e+00 0.000000e+00 0.000000e+00
0.000000e+00 0.000000e+00 0.000000e+00
0.000000e+00 0.000000e+00 0.000000e+00
0.000000e+00 0.000000e+00 0.000000e+00
0.000000e+00 0.000000e+00 0.000000e+00
0.000000e+00 0.000000e+00 0.000000e+00
0.000000e+00 0.000000e+00 0.000000e+00
0.000000e+00 0.000000e+00 0.000000e+00
0.000000e+00 0.000000e+00 0.000000e+00
0.000000e+00 0.000000e+00 0.000000e+00
0.000000e+00 0.000000e+00 0.000000e+00
0.000000e+00 0.000000e+00 0.000000e+00
0.000000e+00 0.000000e+00 0.000000e+00
0.000000e+00 0.000000e+00 0.000000e+00
0.000000e+00 0.000000e+00 0.000000e+00
0.000000e+00 0.000000e+00 0.000000e+00
0.000000e+00 0.000000e+00 0.000000e+00
0.000000e+00 0.000000e+00 0.000000e+00
0.000000e+00 0.000000e+00 0.000000e+00
0.000000e+00 0.000000e+00 0.000000e+00
0.000000e+00 0.000000e+00 0.000000e+00
0.000000e+00 0.000000e+00 0.000000e+00
0.000000e+00 0.000000e+00 0.000000e+00
0.000000e+00 0.000000e+00 0.000000e+00
0.000000e+00 0.000000e+00 0.000000e+00
0.000000e+00 0.000000e+00 0.000000e+00
0.000000e+00 0.000000e+00 0.000000e+00
0.000000e+00 0.000000e+00 0.000000e+00
0.000000e+00 0.000000e+00 0.000000e+00
0.000000e+00 0.000000e+00 0.000000e+00
0.000000e+00 0.000000e+00 0.000000e+00
0.000000e+00 0.000000e+00 0.000000e+00
0.000000e+00 0.000000e+00 0.000000e+00
0.000000e+00 0.000000e+00 0.000000e+00
0.000000e+00 0.000000e+00 0.000000e+00
0.000000e+00 0.000000e+00 0.000000e+00
0.000000e+00 0.000000e+00 0.000000e+00
0.000000e+00 0.000000e+00 0.000000e+00
0.000000e+00 0.000000e+00 0.000000e+00
0.000000e+00 0.000000e+00 0.000000e+00
0.000000e+00 0.000000e+00 0.000000e+00
0.000000e+00 0.000000e+00 0.000000e+00
0.000000e+00 0.000000e+00 0.000000e+00
0.000000e+00 0.000000e+00 0.000000e+00
0.000000e+00 0.000000e+00 0.000000e+00
0.000000e+00 0.000000e+00 0.000000e+00
0.000000e+00 0.000000e+00 0.000000e+00
0.000000e+00 0.000000e+00 0.000000e+00
0.000000e+00 0.000000e+00 0.000000e+00
0.000000e+00 0.000000e+00 0.000000e+00
0.000000e+00 0.000000e+00 0.000000e+00
0.000000e+00 0.000000e+00 0.000000e+00
0.000000e+00 0.000000e+00 0.000000e+00
0.000000e+00 0.000000e+00 0.000000e+00
0.000000e+00 0.000000e+00 0.000000e+00
0.000000e+00 0.000000e+00 0.000000e+00
0.000000e+00 0.000000e+00 0.000000e+00
0.000000e+00 0.000000e+00 0.000000e+00
0.000000e+00 0.000000e+00 0.000000e+00
0.000000e+00 0.000000e+00 0.000000e+00
0.000000e+00 0.000000e+00 0.000000e+00
0.000000e+00 0.000000e+00 0.000000e+00
0.000000e+00 0.000000e+00 0.000000e+00
0.000000e+00 0.000000e+00 0.000000e+00
0.000000e+00 0.000000e+00 0.000000e+00
0.000000e+00 0.000000e+00 0.000000e+00
0.000000e+00 0.000000e+00 0.000000e+00
0.000000e+00 0.000000e+00 0.000000e+00
0.000000e+00 0.000000e+00 0.000000e+00
0.000000e+00 0.000000e+00 0.000000e+00
0.000000e+00 0.000000e+00 0.000000e+00
0.000000e+00 0.000000e+00 0.000000e+00
0.000000e+00 0.000000e+00 0.000000e+00
0.000000e+00 0.000000e+00 0.000000e+00
0.000000e+00 0.000000e+00 0.000000e+00
0.000000e+00 0.000000e+00 0.000000e+00
0.000000e+00 0.000000e+00 0.000000e+00
0.000000e+00 0.000000e+00 0.000000e+00
0.000000e+00 0.000000e+00 0.000000e+00
0.000000e+00 0.000000e+00 0.000000e+00
0.000000e+00 0.000000e+00 0.000000e+00
0.000000e+00 0.000000e+00 0.000000e+00
0.000000e+00 0.000000e+00 0.000000e+00
0.000000e+00 0.000000e+00 0.000000e+00
0.000000e+00 0.000000e+00 0.000000e+00
0.000000e+00 0.000000e+00 0.000000e+00
0.000000e+00 0.000000e+00 0.000000e+00
0.000000e+00 0.000000e+00 0.000000e+00
0.000000e+00 0.000000e+00 0.000000e+00
0.000000e+00 0.000000e+00 0.000000e+00
0.000000e+00 0.000000e+00 0.000000e+00
0.000000e+00 0.000000e+00 0.000000e+00
0.000000e+00 0.000000e+00 0.000000e+00
0.000000e+00 0.000000e+00 0.000000e+00
0.000000e+00 0.000000e+00 0.000000e+00
0.000000e+00 0.000000e+00 0.000000e+00
0.000000e+00 0.000000e+00 0.000000e+00
0.000000e+00 0.000000e+00 0.000000e+00
0.000000e+00 0.000000e+00 0.000000e+00
0.000000e+00 0.000000e+00 0.000000e+00
0.000000e+00 0.000000e+00 0.000000e+00
0.000000e+00 0.000000e+00 0.000000e+00
0.000000e+00 0.000000e+00 0.000000e+00
0.000000e+00 0.000000e+00 0.000000e+00
0.000000e+00 0.000000e+00 0.000000e+00
0.000000e+00 0.000000e+00 0.000000e+00
0.000000e+00 0.000000e+00 0.000000e+00
0.000000e+00 0.000000e+00 0.000000e+00
0.000000e+00 0.000000e+00 0.000000e+00
0.000000e+00 0.000000e+00 0.000000e+00
0.000000e+00 0.000000e+00 0.000000e+00
0.000000e+00 0.000000e+00 0.000000e+00
0.000000e+00 0.000000e+00 0.000000e+00
0.000000e+00 0.000000e+00 0.000000e+00
0.000000e+00 0.000000e+00 0.000000e+00
0.000000e+00 0.000000e+00 0.000000e+00
0.000000e+00 0.000000e+00 0.000000e+00
0.000000e+00 0.000000e+00 0.000000e+00
0.000000e+00 0.000000e+00 0.000000e+00
0.000000e+00 0.000000e+00 0.000000e+00
0.000000e+00 0.000000e+00 0.000000e+00
0.000000e+00 0.000000e+00 0.000000e+00
0.000000e+00 0.000000e+00 0.000000e+00
0.000000e+00 0.000000e+00 0.000000e+00
0.000000e+00 0.000000e+00 0.000000e+00
0.000000e+00 0.000000e+00 0.000000e+00
0.000000e+00 0.000000e+00 0.000000e+00
0.000000e+00 0.000000e+00 0.000000e+00
0.000000e+00 0.000000e+00 0.000000e+00
0.000000e+00 0.000000e+00 0.000000e+00
0.000000e+00 0.000000e+00 0.000000e+00
0.000000e+00 0.000000e+00 0.000000e+00
0.000000e+00 0.000000e+00 0.000000e+00
0.000000e+00 0.000000e+00 0.000000e+00
0.000000e+00 0.000000e+00 0.000000e+00
0.000000e+00 0.000000e+00 0.000000e+00
0.000000e+00 0.000000e+00 0.000000e+00
0.000000e+00 0.000000e+00 0.000000e+00
0.000000e+00 0.000000e+00 0.000000e+00
0.000000e+00 0.000000e+00 0.000000e+00
0.000000e+00 0.000000e+00 0.000000e+00
0.000000e+00 0.000000e+00 0.000000e+00
0.000000e+00 0.000000e+00 0.000000e+00
0.000000e+00 0.000000e+00 0.000000e+00
0.000000e+00 0.000000e+00 0.000000e+00
0.000000e+00 0.000000e+00 0.000000e+00
0.000000e+00 0.000000e+00 0.000000e+00
0.000000e+00 0.000000e+00 0.000000e+00
0.000000e+00 0.000000e+00 0.000000e+00
0.000000e+00 0.000000e+00 0.000000e+00
0.000000e+00 0.000000e+00 0.000000e+00
0.000000e+00 0.000000e+00 0.000000e+00
0.000000e+00 0.000000e+00 0.000000e+00
0.000000e+00 0.000000e+00 0.000000e+00
0.000000e+00 0.000000e+00 0.000000e+00
0.000000e+00 0.000000e+00 0.000000e+00
0.000000e+00 0.000000e+00 0.000000e+00
0.000000e+00 0.000000e+00 0.000000e+00
0.000000e+00 0.000000e+00 0.000000e+00
0.000000e+00 0.000000e+00 0.000000e+00
0.000000e+00 0.000000e+00 0.000000e+00
0.000000e+00 0.000000e+00 0.000000e+00
0.000000e+00 0.000000e+00 0.000000e+00
0.000000e+00 0.000000e+00 0.000000e+00
0.000000e+00 0.000000e+00 0.000000e+00
0.000000e+00 0.000000e+00 0.000000e+00
0.000000e+00 0.000000e+00 0.000000e+00
0.000000e+00 0.000000e+00 0.000000e+00
0.000000e+00 0.000000e+00 0.000000e+00
0.000000e+00 0.000000e+00 0.000000e+00
0.000000e+00 0.000000e+00 0.000000e+00
0.000000e+00 0.000000e+00 0.000000e+00
0.000000e+00 0.000000e+00 0.000000e+00
0.000000e+00 0.000000e+00 0.000000e+00
0.000000e+00 0.000000e+00 0.000000e+00
0.000000e+00 0.000000e+00 0.000000e+00
0.000000e+00 0.000000e+00 0.000000e+00
0.000000e+00 0.000000e+00 0.000000e+00
0.000000e+00 0.000000e+00 0.000000e+00
0.000000e+00 0.000000e+00 0.000000e+00
0.000000e+00 0.000000e+00 0.000000e+00
0.000000e+00 0.000000e+00 0.000000e+00
0.000000e+00 0.000000e+00 0.000000e+00
0.000000e+00 0.000000e+00 0.000000e+00
0.000000e+00 0.000000e+00 0.000000e+00
0.000000e+00 0.000000e+00 0.000000e+00
0.000000e+00 0.000000e+00 0.000000e+00
0.000000e+00 0.000000e+00 0.000000e+00
0.000000e+00 0.000000e+00 0.000000e+00
0.000000e+00 0.000000e+00 0.000000e+00
0.000000e+00 0.000000e+00 0.000000e+00
0.000000e+00 0.000000e+00 0.000000e+00
0.000000e+00 0.000000e+00 0.000000e+00
0.000000e+00 0.000000e+00 0.000000e+00
0.000000e+00 0.000000e+00 0.000000e+00
0.000000e+00 0.000000e+00 0.000000e+00
0.000000e+00 0.000000e+00 0.000000e+00
0.000000e+00 0.000000e+00 0.000000e+00
0.000000e+00 0.000000e+00 0.000000e+00
0.000000e+00 0.000000e+00 0.000000e+00
0.000000e+00 0.000000e+00 0.000000e+00
0.000000e+00 0.000000e+00 0.000000e+00
0.000000e+00 0.000000e+00 0.000000e+00
0.000000e+00 0.000000e+00 0.000000e+00
0.000000e+00 0.000000e+00 0.000000e+00
0.000000e+00 0.000000e+00 0.000000e+00
0.000000e+00 0.000000e+00 0.000000e+00
0.000000e+00 0.000000e+00 0.000000e+00
0.000000e+00 0.000000e+00 0.000000e+00
0.000000e+00 0.000000e+00 0.000000e+00
0.000000e+00 0.000000e+00 0.000000e+00
0.000000e+00 0.000000e+00 0.000000e+00
0.000000e+00 0.000000e+00 0.000000e+00
0.000000e+00 0.000000e+00 0.000000e+00
0.000000e+00 0.000000e+00 0.000000e+00
0.000000e+00 0.000000e+00 0.000000e+00
0.000000e+00 0.000000e+00 0.000000e+00
0.000000e+00 0.000000e+00 0.000000e+00
0.000000e+00 0.000000e+00 0.000000e+00
0.000000e+00 0.000000e+00 0.000000e+00
0.000000e+00 0.000000e+00 0.000000e+00
0.000000e+00 0.000000e+00 0.000000e+00
0.000000e+00 0.000000e+00 0.000000e+00
0.000000e+00 0.000000e+00 0.000000e+00
0.000000e+00 0.000000e+00 0.000000e+00
0.000000e+00 0.000000e+00 0.000000e+00
0.000000e+00 0.000000e+00 0.000000e+00
0.000000e+00 0.000000e+00 0.000000e+00
0.000000e+00 0.000000e+00 0.000000e+00
0.000000e+00 0.000000e+00 0.000000e+00
0.000000e+00 0.000000e+00 0.000000e+00
0.000000e+00 0.000000e+00 0.000000e+00
0.000000e+00 0.000000e+00 0.000000e+00
0.000000e+00 0.000000e+00 0.000000e+00
0.000000e+00 0.000000e+00 0.000000e+00
0.000000e+00 0.000000e+00 0.000000e+00
0.000000e+00 0.000000e+00 0.000000e+00
0.000000e+00 0.000000e+00 0.000000e+00
0.000000e+00 0.000000e+00 0.000000e+00
0.000000e+00 0.000000e+00 0.000000e+00
0.000000e+00 0.000000e+00 0.000000e+00
0.000000e+00 0.000000e+00 0.000000e+00
0.000000e+00 0.000000e+00 0.000000e+00
0.000000e+00 0.000000e+00 0.000000e+00
0.000000e+00 0.000000e+00 0.000000e+00
0.000000e+00 0.000000e+00 0.000000e+00
0.000000e+00 0.000000e+00 0.000000e+00
0.000000e+00 0.000000e+00 0.000000e+00
0.000000e+00 0.000000e+00 0.000000e+00
0.000000e+00 0.000000e+00 0.000000e+00