# vtk DataFile Version 2.0
Test
ASCII
DATASET UNSTRUCTURED_GRID
POINTS 1812 float
4.302411e+01 3.355092e+02 -2.551255e+02
4.410494e+01 4.023812e+02 -2.489135e+02
6.086041e+01 4.155242e+02 -1.713160e+02
6.086094e+01 3.075254e+02 -1.677417e+02
4.400978e+01 3.355434e+02 -2.552907e+02
4.508716e+01 4.023290e+02 -2.490938e+02
6.157550e+01 4.152837e+02 -1.719723e+02
6.157497e+01 3.076699e+02 -1.684268e+02
1.414658e+01 3.236755e+02 -5.284918e+02
2.411862e+01 2.334404e+02 -5.164111e+02
2.146945e+01 2.359706e+02 -5.747418e+02
8.972524e+00 3.594791e+02 -6.258994e+02
1.514247e+01 3.237494e+02 -5.285442e+02
2.509829e+01 2.336347e+02 -5.164609e+02
2.244822e+01 2.361744e+02 -5.747636e+02
9.971201e+00 3.595232e+02 -6.259258e+02
6.403073e+00 4.502059e+02 -7.246987e+02
8.861762e+00 4.868125e+02 -6.324904e+02
9.715160e+00 4.371743e+02 -5.567893e+02
7.400000e+00 4.501276e+02 -7.246974e+02
9.857582e+00 4.867220e+02 -6.325029e+02
1.071339e+01 4.371363e+02 -5.568352e+02
6.091603e+01 7.082595e+02 -8.358051e+02
6.091269e+01 6.846827e+02 -7.090553e+02
1.653224e+01 5.781081e+02 -7.296752e+02
1.545987e+01 5.910899e+02 -8.680538e+02
6.151988e+01 7.074706e+02 -8.359197e+02
6.152323e+01 6.839084e+02 -7.092220e+02
1.750127e+01 5.778632e+02 -7.297063e+02
1.644419e+01 5.909145e+02 -8.680730e+02
2.119970e+01 5.652642e+02 -6.175256e+02
6.091610e+01 6.556286e+02 -5.955594e+02
2.216330e+01 5.650027e+02 -6.175813e+02
6.151981e+01 6.548614e+02 -5.957760e+02
6.092188e+01 7.219329e+02 -9.635008e+02
2.363081e+01 6.427953e+02 -9.843526e+02
6.151404e+01 7.211298e+02 -9.635671e+02
2.460230e+01 6.425583e+02 -9.843465e+02
3.304044e+01 3.825954e+02 -1.092163e+03
3.785179e+01 4.102873e+02 -1.143340e+03
2.822119e+01 4.955442e+02 -1.090006e+03
1.894944e+01 4.627537e+02 -9.855399e+02
3.403409e+01 3.826336e+02 -1.092057e+03
3.884457e+01 4.103248e+02 -1.143226e+03
2.921481e+01 4.955667e+02 -1.089896e+03
1.994704e+01 4.627821e+02 -9.854767e+02
4.002259e+01 6.568711e+02 -1.216935e+03
2.995980e+01 6.608398e+02 -1.096133e+03
2.765253e+01 5.964421e+02 -1.106961e+03
3.945789e+01 5.482363e+02 -1.196324e+03
4.101474e+01 6.567552e+02 -1.216888e+03
3.094398e+01 6.606641e+02 -1.096110e+03
2.864921e+01 5.964352e+02 -1.106879e+03
4.044965e+01 5.482595e+02 -1.196198e+03
6.090439e+01 5.702080e+02 -3.579349e+02
6.088208e+01 5.072399e+02 -2.435704e+02
3.519214e+01 4.399856e+02 -3.134615e+02
2.622188e+01 4.805239e+02 -4.087676e+02
6.153153e+01 5.695035e+02 -3.582671e+02
6.155384e+01 5.066713e+02 -2.440452e+02
3.617302e+01 4.398665e+02 -3.136153e+02
2.719841e+01 4.803436e+02 -4.088854e+02
1.685618e+01 3.704846e+02 -4.542574e+02
2.282552e+01 5.272275e+02 -5.110962e+02
1.785252e+01 3.705024e+02 -4.543410e+02
2.379539e+01 5.270028e+02 -5.111904e+02
2.929933e+01 3.516969e+02 -3.428550e+02
3.029117e+01 3.517188e+02 -3.429806e+02
2.837866e+01 2.428510e+02 -4.300948e+02
3.652952e+01 2.544929e+02 -3.369879e+02
2.935863e+01 2.430274e+02 -4.301870e+02
3.751254e+01 2.546390e+02 -3.370990e+02
6.089102e+01 1.610602e+02 -3.074071e+02
6.090875e+01 1.308950e+02 -4.165045e+02
6.154489e+01 1.617582e+02 -3.076991e+02
6.152717e+01 1.316551e+02 -4.167040e+02
6.082943e+01 1.068919e+02 -5.293103e+02
6.160648e+01 1.075100e+02 -5.294290e+02
6.074086e+01 1.091533e+02 -5.835982e+02
6.169506e+01 1.094510e+02 -5.836286e+02
9.868509e+00 4.863862e+02 -8.537739e+02
1.086821e+01 4.863663e+02 -8.537883e+02
4.742523e+01 4.300928e+02 -1.222156e+03
6.072177e+01 4.284524e+02 -1.313100e+03
6.072148e+01 5.515058e+02 -1.328676e+03
4.841664e+01 4.301238e+02 -1.222029e+03
6.171414e+01 4.284721e+02 -1.312978e+03
6.171443e+01 5.515262e+02 -1.328560e+03
6.071796e+01 1.361236e+02 -1.276028e+03
6.071849e+01 2.871073e+02 -1.295167e+03
5.183933e+01 3.002655e+02 -1.223566e+03
6.071911e+01 1.315153e+02 -1.157681e+03
6.171796e+01 1.361235e+02 -1.276029e+03
6.171742e+01 2.871131e+02 -1.295121e+03
5.283508e+01 3.003027e+02 -1.223482e+03
6.171680e+01 1.315611e+02 -1.157630e+03
6.071896e+01 6.555145e+02 -1.341796e+03
6.171695e+01 6.554591e+02 -1.341766e+03
6.088585e+01 7.373210e+02 -1.208597e+03
6.081265e+01 7.629522e+02 -1.355269e+03
6.155006e+01 7.365788e+02 -1.208687e+03
6.162326e+01 7.623897e+02 -1.355432e+03
6.090319e+01 7.287788e+02 -1.081719e+03
6.153272e+01 7.280034e+02 -1.081767e+03
1.632136e+01 5.342229e+02 -9.698861e+02
1.732052e+01 5.342211e+02 -9.698452e+02
2.144151e+01 5.663724e+02 -1.037510e+03
2.243856e+01 5.663532e+02 -1.037436e+03
4.634634e+01 3.131481e+02 -1.181095e+03
4.733887e+01 3.132082e+02 -1.180989e+03
6.091277e+01 6.164122e+02 -4.734637e+02
6.152314e+01 6.156668e+02 -4.737317e+02
4.463128e+01 2.687711e+02 -2.690260e+02
4.561604e+01 2.688812e+02 -2.691607e+02
4.596146e+01 2.646231e+02 -1.155028e+03
4.695390e+01 2.646924e+02 -1.154926e+03
6.086212e+01 2.123292e+02 -2.128546e+02
6.157379e+01 2.128141e+02 -2.133629e+02
6.083006e+01 6.498554e+02 -1.470349e+03
6.071799e+01 7.619104e+02 -1.492289e+03
6.182910e+01 6.498992e+02 -1.470350e+03
6.171792e+01 7.619074e+02 -1.492301e+03
8.115928e+01 5.350073e+02 -1.454215e+03
8.215722e+01 5.350341e+02 -1.454157e+03
6.900081e+01 4.105517e+02 -1.439152e+03
6.999742e+01 4.105211e+02 -1.439076e+03
6.046609e+01 2.760957e+02 -1.425447e+03
6.146587e+01 2.760823e+02 -1.425431e+03
6.071796e+01 1.359795e+02 -1.414860e+03
6.171796e+01 1.359802e+02 -1.414862e+03
6.094672e+01 6.455991e+02 -1.591936e+03
6.071910e+01 7.612401e+02 -1.606435e+03
6.194128e+01 6.457033e+02 -1.591939e+03
6.171682e+01 7.613075e+02 -1.606435e+03
9.019345e+01 5.265143e+02 -1.578359e+03
9.119240e+01 5.265544e+02 -1.578337e+03
6.885592e+01 4.013963e+02 -1.565160e+03
6.985104e+01 4.013005e+02 -1.565137e+03
6.022664e+01 2.702567e+02 -1.554268e+03
6.122616e+01 2.702257e+02 -1.554269e+03
6.071796e+01 1.358421e+02 -1.546637e+03
6.171795e+01 1.358447e+02 -1.546639e+03
6.101586e+01 6.428070e+02 -1.710413e+03
6.072047e+01 7.606161e+02 -1.715650e+03
6.200820e+01 6.429306e+02 -1.710415e+03
6.171544e+01 7.607162e+02 -1.715651e+03
9.181947e+01 5.227346e+02 -1.702073e+03
9.281887e+01 5.227689e+02 -1.702068e+03
6.783336e+01 3.967114e+02 -1.690732e+03
6.882617e+01 3.965917e+02 -1.690726e+03
6.011453e+01 2.671404e+02 -1.681695e+03
6.111410e+01 2.671110e+02 -1.681697e+03
6.071796e+01 1.357081e+02 -1.675351e+03
6.171795e+01 1.357122e+02 -1.675352e+03
6.106032e+01 6.408874e+02 -1.829576e+03
6.072146e+01 7.599786e+02 -1.828600e+03
6.205218e+01 6.410147e+02 -1.829578e+03
6.171446e+01 7.600967e+02 -1.828601e+03
9.271815e+01 5.192264e+02 -1.824344e+03
9.371772e+01 5.192559e+02 -1.824342e+03
6.717787e+01 3.937436e+02 -1.815698e+03
6.816998e+01 3.936183e+02 -1.815695e+03
6.005058e+01 2.652861e+02 -1.808339e+03
6.105023e+01 2.652598e+02 -1.808341e+03
6.071796e+01 1.355757e+02 -1.802892e+03
6.171795e+01 1.355805e+02 -1.802893e+03
6.109939e+01 6.392203e+02 -1.950487e+03
6.072155e+01 7.593216e+02 -1.946538e+03
6.209104e+01 6.393492e+02 -1.950489e+03
6.171436e+01 7.594413e+02 -1.946539e+03
9.293161e+01 5.179993e+02 -1.949350e+03
9.393126e+01 5.180261e+02 -1.949349e+03
6.685182e+01 3.920231e+02 -1.941332e+03
6.784360e+01 3.918952e+02 -1.941331e+03
6.001227e+01 2.641277e+02 -1.934922e+03
6.101196e+01 2.641031e+02 -1.934923e+03
6.071796e+01 1.354437e+02 -1.930137e+03
6.171795e+01 1.354490e+02 -1.930138e+03
6.111835e+01 6.381330e+02 -2.075112e+03
6.072143e+01 7.586400e+02 -2.069203e+03
6.210987e+01 6.382629e+02 -2.075113e+03
6.171448e+01 7.587577e+02 -2.069204e+03
9.323127e+01 5.164383e+02 -2.074469e+03
9.423094e+01 5.164640e+02 -2.074468e+03
6.661325e+01 3.906386e+02 -2.067245e+03
6.760489e+01 3.905096e+02 -2.067243e+03
5.998511e+01 2.632565e+02 -2.061482e+03
6.098483e+01 2.632329e+02 -2.061482e+03
6.071796e+01 1.353119e+02 -2.057244e+03
6.171795e+01 1.353175e+02 -2.057244e+03
6.114182e+01 6.369319e+02 -2.202985e+03
6.072116e+01 7.579086e+02 -2.201065e+03
6.213326e+01 6.370625e+02 -2.202986e+03
6.171475e+01 7.580217e+02 -2.201066e+03
9.366481e+01 5.143269e+02 -2.199456e+03
9.466452e+01 5.143506e+02 -2.199454e+03
6.637821e+01 3.892438e+02 -2.193051e+03
6.736960e+01 3.891129e+02 -2.193049e+03
5.996078e+01 2.624653e+02 -2.187779e+03
6.096053e+01 2.624426e+02 -2.187780e+03
6.071797e+01 1.351806e+02 -2.184010e+03
6.171795e+01 1.351864e+02 -2.184011e+03
6.114507e+01 6.362408e+02 -2.334149e+03
6.072012e+01 7.571364e+02 -2.341664e+03
6.213645e+01 6.363718e+02 -2.334150e+03
6.171580e+01 7.572292e+02 -2.341661e+03
9.389594e+01 5.129430e+02 -2.325950e+03
9.489570e+01 5.129645e+02 -2.325949e+03
6.619139e+01 3.880430e+02 -2.318768e+03
6.718254e+01 3.879102e+02 -2.318767e+03
5.993918e+01 2.617465e+02 -2.313612e+03
6.093894e+01 2.617245e+02 -2.313612e+03
6.071797e+01 1.350499e+02 -2.310176e+03
6.171795e+01 1.350559e+02 -2.310176e+03
6.116089e+01 6.352130e+02 -2.459258e+03
6.071935e+01 7.564525e+02 -2.466221e+03
6.215227e+01 6.353441e+02 -2.459259e+03
6.171656e+01 7.565270e+02 -2.466216e+03
9.395291e+01 5.116621e+02 -2.450524e+03
9.495271e+01 5.116820e+02 -2.450527e+03
6.600370e+01 3.869239e+02 -2.443432e+03
6.699471e+01 3.867901e+02 -2.443435e+03
5.992244e+01 2.610707e+02 -2.438629e+03
6.092221e+01 2.610493e+02 -2.438630e+03
6.071797e+01 1.349200e+02 -2.435554e+03
6.171795e+01 1.349262e+02 -2.435554e+03
6.117640e+01 6.336365e+02 -2.580573e+03
6.071921e+01 7.557648e+02 -2.590165e+03
6.216815e+01 6.337647e+02 -2.580575e+03
6.171670e+01 7.558355e+02 -2.590162e+03
9.238486e+01 5.102936e+02 -2.572889e+03
9.338459e+01 5.103116e+02 -2.572904e+03
6.557812e+01 3.858261e+02 -2.566761e+03
6.656928e+01 3.856944e+02 -2.566777e+03
5.994607e+01 2.604244e+02 -2.562701e+03
6.094586e+01 2.604042e+02 -2.562703e+03
6.071797e+01 1.347910e+02 -2.560122e+03
6.171795e+01 1.347972e+02 -2.560121e+03
6.111616e+01 6.324799e+02 -2.698932e+03
6.071914e+01 7.551266e+02 -2.705112e+03
6.210953e+01 6.325948e+02 -2.698934e+03
6.171677e+01 7.551945e+02 -2.705102e+03
8.699187e+01 5.090786e+02 -2.693444e+03
8.799120e+01 5.090936e+02 -2.693477e+03
6.463090e+01 3.848279e+02 -2.688922e+03
6.562316e+01 3.847091e+02 -2.688959e+03
6.006723e+01 2.598390e+02 -2.685911e+03
[...]
POINT_DATA 1812
VECTORS DISPLACEMENT float
3.037407e-01 -2.389469e-02 2.810419e+01
3.504792e-01 -2.443990e-02 2.811876e+01
4.361786e-01 -7.958311e-02 2.810951e+01
3.854221e-01 -6.601219e-02 2.808498e+01
3.038023e-01 -2.406963e-02 2.810348e+01
3.505553e-01 -2.486174e-02 2.811742e+01
4.354274e-01 -7.897580e-02 2.810847e+01
3.851183e-01 -6.661387e-02 2.808451e+01
1.526764e-01 -2.069709e-02 2.804247e+01
1.502539e-01 -7.804689e-02 2.803093e+01
9.738979e-02 -6.597311e-02 2.801137e+01
1.323074e-01 1.702562e-03 2.801876e+01
1.530585e-01 -2.104532e-02 2.804199e+01
1.505269e-01 -7.794019e-02 2.803008e+01
9.793181e-02 -6.637466e-02 2.801055e+01
1.326271e-01 1.255496e-03 2.801847e+01
1.335396e-01 3.417522e-02 2.802232e+01
1.392905e-01 3.794688e-02 2.803579e+01
1.788693e-01 3.021334e-02 2.804829e+01
1.336725e-01 3.422636e-02 2.802218e+01
1.395137e-01 3.813585e-02 2.803556e+01
1.791017e-01 3.012266e-02 2.804787e+01
1.384353e-01 7.268827e-02 2.801474e+01
1.533634e-01 6.836075e-02 2.801291e+01
1.308577e-01 4.738017e-02 2.802401e+01
9.685090e-02 4.305792e-02 2.802036e+01
1.383403e-01 7.260228e-02 2.801466e+01
1.534309e-01 6.839631e-02 2.801280e+01
1.309128e-01 4.724092e-02 2.802379e+01
9.692499e-02 4.291502e-02 2.802016e+01
1.487602e-01 4.782039e-02 2.803879e+01
1.815001e-01 7.095977e-02 2.801867e+01
1.488805e-01 4.755312e-02 2.803844e+01
1.814442e-01 7.084091e-02 2.801873e+01
1.067372e-01 5.648681e-02 2.800718e+01
8.452098e-02 4.207565e-02 2.801409e+01
1.066724e-01 5.647639e-02 2.800720e+01
8.465557e-02 4.197170e-02 2.801402e+01
5.366118e-03 -7.727105e-03 2.800484e+01
5.657824e-03 -3.950792e-03 2.800268e+01
5.472329e-02 4.739748e-03 2.800993e+01
7.776872e-02 8.208201e-03 2.802254e+01
5.417897e-03 -8.030792e-03 2.800459e+01
5.681019e-03 -4.235629e-03 2.800254e+01
5.481956e-02 4.287689e-03 2.800955e+01
7.786484e-02 7.826652e-03 2.802225e+01
7.150900e-02 4.759757e-04 2.801159e+01
7.752963e-02 1.958861e-02 2.800943e+01
6.120766e-02 7.986365e-03 2.800937e+01
4.845421e-02 -7.208740e-03 2.800582e+01
7.152967e-02 3.640196e-04 2.801136e+01
7.753317e-02 1.934633e-02 2.800947e+01
6.130696e-02 7.942005e-03 2.800917e+01
4.849648e-02 -7.527020e-03 2.800573e+01
2.713319e-01 5.931763e-02 2.809014e+01
3.473606e-01 4.387376e-02 2.812252e+01
2.706458e-01 5.087288e-03 2.812035e+01
2.544459e-01 3.032136e-03 2.809501e+01
2.713458e-01 5.917740e-02 2.808980e+01
3.466117e-01 4.346742e-02 2.812152e+01
2.709226e-01 5.168527e-03 2.811987e+01
2.547379e-01 2.980120e-03 2.809470e+01
2.152146e-01 4.572603e-03 2.806860e+01
1.951877e-01 3.141042e-02 2.806730e+01
2.154579e-01 4.347874e-03 2.806788e+01
1.954796e-01 3.156476e-02 2.806673e+01
2.872268e-01 -2.476070e-02 2.809229e+01
2.874658e-01 -2.436801e-02 2.809198e+01
2.117846e-01 -6.464146e-02 2.804726e+01
2.860308e-01 -4.157693e-02 2.806440e+01
2.120622e-01 -6.485010e-02 2.804648e+01
2.863090e-01 -4.209540e-02 2.806383e+01
2.091339e-01 -7.984469e-02 2.805512e+01
1.874013e-01 -1.248365e-01 2.803502e+01
2.101463e-01 -8.054936e-02 2.805505e+01
1.876996e-01 -1.249432e-01 2.803487e+01
1.419483e-01 -1.220619e-01 2.800504e+01
1.423421e-01 -1.223319e-01 2.800496e+01
9.349541e-02 -1.265630e-01 2.797979e+01
9.365842e-02 -1.261460e-01 2.797849e+01
9.844039e-02 3.386300e-02 2.802859e+01
9.852042e-02 3.394487e-02 2.802838e+01
4.361707e-03 -7.051450e-03 2.799976e+01
1.546471e-02 -3.330240e-03 2.799981e+01
2.987561e-02 6.087337e-03 2.800282e+01
4.366616e-03 -7.265937e-03 2.799973e+01
1.546828e-02 -3.440062e-03 2.799989e+01
2.990743e-02 6.013851e-03 2.800264e+01
5.922717e-03 -1.557010e-03 2.799803e+01
7.224934e-03 -1.273466e-03 2.799858e+01
4.878805e-03 -5.452565e-03 2.799838e+01
1.834071e-03 -1.977584e-03 2.799644e+01
5.908322e-03 -1.570331e-03 2.799803e+01
7.230575e-03 -1.289003e-03 2.799861e+01
4.855629e-03 -5.397012e-03 2.799845e+01
1.836226e-03 -2.025665e-03 2.799647e+01
2.990361e-02 1.041360e-02 2.800649e+01
2.993462e-02 1.031269e-02 2.800616e+01
7.296037e-02 1.161440e-02 2.800928e+01
3.482921e-02 8.157709e-03 2.801211e+01
7.297931e-02 1.170850e-02 2.800925e+01
3.475582e-02 8.220639e-03 2.801195e+01
8.898841e-02 3.064615e-02 2.800598e+01
8.900053e-02 3.072273e-02 2.800610e+01
9.565849e-02 2.291134e-02 2.801877e+01
9.574500e-02 2.287569e-02 2.801886e+01
8.796591e-02 2.049872e-02 2.801411e+01
8.805481e-02 2.065763e-02 2.801381e+01
2.046733e-03 -4.957635e-03 2.799842e+01
2.021544e-03 -4.906177e-03 2.799852e+01
2.168209e-01 9.282647e-02 2.805248e+01
2.166845e-01 9.249674e-02 2.805226e+01
3.051201e-01 -4.445313e-02 2.808394e+01
3.053326e-01 -4.457482e-02 2.808389e+01
2.662143e-03 -7.451805e-03 2.799746e+01
2.648549e-03 -7.336176e-03 2.799744e+01
2.862761e-01 -1.027519e-01 2.808296e+01
2.866152e-01 -1.029281e-01 2.808278e+01
8.222229e-03 8.652147e-03 2.800375e+01
2.256540e-03 8.800646e-03 2.800469e+01
8.234994e-03 8.716703e-03 2.800365e+01
2.281305e-03 8.652083e-03 2.800454e+01
8.049107e-03 8.076582e-03 2.800010e+01
8.096737e-03 8.069836e-03 2.800000e+01
1.142290e-02 5.466699e-03 2.799978e+01
1.145224e-02 5.464630e-03 2.799972e+01
8.566117e-03 9.906554e-04 2.799944e+01
8.567277e-03 9.507835e-04 2.799941e+01
5.460306e-03 5.732286e-04 2.799871e+01
5.470321e-03 5.751977e-04 2.799873e+01
-1.123906e-04 6.868271e-03 2.800125e+01
-3.196593e-04 4.264754e-03 2.800149e+01
-8.724994e-05 6.893090e-03 2.800122e+01
-2.952465e-04 4.269257e-03 2.800155e+01
3.618024e-03 6.129664e-03 2.799963e+01
3.644652e-03 6.148387e-03 2.799961e+01
3.466946e-03 4.043891e-03 2.799990e+01
3.483958e-03 4.053540e-03 2.799989e+01
5.542903e-03 3.106780e-03 2.799987e+01
5.554060e-03 3.122143e-03 2.799983e+01
5.323983e-03 1.780727e-03 2.799933e+01
5.322309e-03 1.764753e-03 2.799932e+01
-2.205261e-04 4.359106e-03 2.800033e+01
-2.578750e-03 4.166339e-03 2.800057e+01
-2.211879e-04 4.367252e-03 2.800033e+01
-2.559227e-03 4.123843e-03 2.800057e+01
1.630684e-04 4.445142e-03 2.799975e+01
1.638415e-04 4.463137e-03 2.799972e+01
2.659748e-03 3.323373e-03 2.799994e+01
2.656252e-03 3.320759e-03 2.799992e+01
2.703906e-03 1.712216e-03 2.799999e+01
2.710963e-03 1.720426e-03 2.799998e+01
4.066587e-03 2.021933e-03 2.800000e+01
4.072559e-03 2.037657e-03 2.800000e+01
-1.750955e-03 3.078821e-03 2.800014e+01
-2.805457e-03 1.997724e-03 2.800046e+01
-1.761216e-03 3.127966e-03 2.800012e+01
-2.787888e-03 1.966764e-03 2.800049e+01
5.308536e-04 3.033546e-03 2.799988e+01
5.267716e-04 3.030632e-03 2.799992e+01
8.736793e-04 1.968773e-03 2.800001e+01
8.733934e-04 1.980685e-03 2.799998e+01
2.281591e-03 1.607190e-03 2.800004e+01
2.273307e-03 1.611854e-03 2.800003e+01
2.135529e-03 8.781596e-04 2.800026e+01
2.153998e-03 8.688963e-04 2.800026e+01
-9.401056e-04 1.534635e-03 2.800004e+01
-2.041645e-03 1.392899e-03 2.800039e+01
-9.403386e-04 1.524033e-03 2.800003e+01
-2.055586e-03 1.408015e-03 2.800042e+01
-4.010952e-04 1.786494e-03 2.799997e+01
-3.913065e-04 1.797977e-03 2.799994e+01
9.825278e-04 1.394074e-03 2.799999e+01
9.910904e-04 1.409588e-03 2.800002e+01
1.001557e-03 8.076708e-04 2.800008e+01
1.000996e-03 8.055215e-04 2.800006e+01
1.793490e-03 1.002428e-03 2.800021e+01
1.789123e-03 1.006205e-03 2.800020e+01
-6.713549e-04 9.486877e-04 2.799997e+01
-9.475121e-04 5.721179e-04 2.800017e+01
-6.535658e-04 9.739983e-04 2.800000e+01
-9.318782e-04 5.337596e-04 2.800017e+01
9.667863e-05 9.713183e-04 2.799996e+01
1.152486e-04 9.626303e-04 2.800000e+01
1.758356e-04 7.154892e-04 2.800002e+01
1.722763e-04 7.231098e-04 2.800000e+01
8.810564e-04 7.084931e-04 2.800003e+01
8.848960e-04 7.018257e-04 2.800006e+01
9.452131e-04 3.322634e-04 2.800024e+01
9.256455e-04 3.268689e-04 2.800019e+01
-2.320209e-04 3.585639e-04 2.799996e+01
-4.545622e-04 4.143850e-04 2.800003e+01
-1.932671e-04 3.718008e-04 2.800001e+01
-4.308569e-04 4.019349e-04 2.800006e+01
-2.047508e-04 5.540781e-04 2.799998e+01
-1.935551e-04 5.509143e-04 2.799998e+01
3.281120e-04 4.860823e-04 2.800001e+01
3.196424e-04 4.737119e-04 2.800001e+01
3.911041e-04 2.487144e-04 2.800006e+01
3.589534e-04 2.686850e-04 2.800003e+01
7.503704e-04 4.129464e-04 2.800011e+01
7.557088e-04 4.199349e-04 2.800012e+01
-2.505278e-04 2.515695e-04 2.799998e+01
-2.288375e-04 5.317754e-05 2.800000e+01
-2.340499e-04 2.320164e-04 2.799998e+01
-2.005189e-04 6.656906e-05 2.800002e+01
2.963517e-05 2.848904e-04 2.800000e+01
2.460430e-05 3.016775e-04 2.800000e+01
4.174623e-05 2.611863e-04 2.800002e+01
1.048972e-05 2.578219e-04 2.799999e+01
3.793759e-04 3.077666e-04 2.800003e+01
3.632319e-04 3.166788e-04 2.800001e+01
3.912155e-04 9.341594e-05 2.800009e+01
3.668697e-04 8.346594e-05 2.800010e+01
-3.498681e-05 1.244172e-04 2.799999e+01
-7.194301e-05 1.559301e-04 2.799999e+01
-3.717478e-05 1.132079e-04 2.799998e+01
-6.120978e-05 1.488144e-04 2.800000e+01
-7.516477e-05 2.078452e-04 2.800001e+01
-8.733882e-05 2.122250e-04 2.799998e+01
1.649438e-04 2.456926e-04 2.800000e+01
1.617220e-04 2.543466e-04 2.800000e+01
1.236189e-04 1.385171e-04 2.800002e+01
1.216609e-04 1.301671e-04 2.800002e+01
2.866964e-04 1.908967e-04 2.800004e+01
2.775232e-04 2.265004e-04 2.800004e+01
-6.845291e-05 1.524511e-04 2.799998e+01
-1.324724e-05 5.149938e-05 2.800000e+01
-7.043642e-05 1.542653e-04 2.800001e+01
-3.258301e-06 7.761282e-05 2.799999e+01
8.737965e-05 1.724689e-04 2.800001e+01
7.672321e-05 1.814420e-04 2.799998e+01
1.752242e-05 1.320461e-04 2.799999e+01
2.837307e-05 1.505869e-04 2.800001e+01
1.021163e-04 1.581744e-04 2.800000e+01
1.130720e-04 1.436538e-04 2.800001e+01
8.033764e-05 3.647403e-05 2.800003e+01
8.428848e-05 2.147739e-05 2.800003e+01
6.572566e-05 8.045431e-05 2.800000e+01
-4.603664e-05 7.057904e-05 2.799999e+01
7.067228e-05 9.049658e-05 2.799999e+01
-5.123788e-05 4.798067e-05 2.800001e+01
-2.271942e-05 1.324956e-04 2.799999e+01
-6.561443e-06 1.347906e-04 2.800001e+01
6.293732e-05 1.161336e-04 2.800000e+01
8.185324e-05 1.165675e-04 2.800000e+01
-1.919180e-05 5.901796e-05 2.800000e+01
-6.456520e-06 4.346237e-05 2.800001e+01
4.114627e-05 7.849076e-05 2.800001e+01
3.769434e-05 1.047210e-04 2.800001e+01
4.390612e-06 6.593055e-05 2.800000e+01
5.288317e-05 3.617581e-05 2.800001e+01
1.952511e-05 6.859812e-05 2.800000e+01
4.335815e-05 4.925052e-05 2.799999e+01
4.033055e-05 3.371806e-05 2.799999e+01
6.689832e-05 5.414104e-05 2.800001e+01
-3.018449e-05 4.683800e-05 2.799999e+01
-1.292213e-05 2.739699e-05 2.800001e+01
-1.177129e-05 4.813199e-05 2.799999e+01
1.107588e-05 4.429740e-05 2.800001e+01
-4.438391e-05 8.723785e-06 2.800000e+01
-3.571480e-05 4.551635e-08 2.800002e+01
3.992551e-05 -5.475448e-06 2.800000e+01
1.292029e-06 4.437913e-05 2.799999e+01
5.239035e-05 7.206225e-06 2.800000e+01
1.409446e-05 3.459126e-05 2.800001e+01
-2.050246e-05 4.654998e-06 2.799999e+01
-6.002580e-06 -1.446667e-05 2.800001e+01
6.636940e-06 -2.688569e-05 2.799999e+01
3.062098e-05 -8.760517e-06 2.800000e+01
-3.930885e-05 -1.733066e-05 2.800000e+01
-3.335174e-05 -1.509398e-05 2.800000e+01
-1.656399e-05 1.969194e-05 2.800000e+01
-1.111527e-05 5.743707e-07 2.800000e+01
-1.185696e-05 -3.847501e-05 2.799999e+01
1.060494e-05 -1.005705e-05 2.799999e+01
7.796953e-07 -3.194259e-05 2.800001e+01
2.046649e-05 -2.753598e-05 2.800002e+01
1.593350e-05 -6.570712e-05 2.800000e+01
4.176159e-05 -5.325080e-05 2.799999e+01
-4.072842e-05 -3.823672e-05 2.800000e+01
-3.433202e-05 -6.136240e-05 2.799999e+01
-2.428885e-06 -1.350493e-05 2.799999e+01
2.425279e-06 -2.302170e-05 2.799999e+01
-3.254764e-05 -1.955177e-05 2.799999e+01
-2.448144e-05 -7.003250e-06 2.800000e+01
-1.176970e-04 2.270846e-04 2.799985e+01
1.623362e-04 2.376351e-04 2.800002e+01
-2.185102e-05 1.451929e-04 2.799999e+01
3.419302e-05 -8.985776e-05 2.799992e+01
-1.095511e-04 2.184020e-04 2.799985e+01
1.763967e-04 2.334551e-04 2.800002e+01
7.425622e-06 1.400580e-04 2.800001e+01
4.398000e-05 -9.836618e-05 2.799994e+01
9.661897e-05 8.189589e-05 2.800003e+01
-5.607152e-05 1.076912e-04 2.799999e+01
1.087167e-04 7.062026e-05 2.800003e+01
-2.640421e-05 1.109019e-04 2.800003e+01
-5.525897e-06 1.329335e-05 2.799997e+01
3.075992e-05 -5.355573e-05 2.800000e+01
2.993374e-05 1.301914e-05 2.800001e+01
3.822761e-05 -4.452653e-05 2.799998e+01
-8.200573e-05 6.204909e-05 2.800000e+01
-6.340960e-05 6.185082e-05 2.800000e+01
-2.690293e-05 -9.376604e-06 2.799999e+01
4.996559e-06 -4.951625e-05 2.800000e+01
-2.400014e-05 -5.541779e-06 2.800000e+01
5.305596e-06 -4.995315e-05 2.799999e+01
3.167180e-07 -5.122617e-06 2.800001e+01
8.767176e-06 -5.662231e-06 2.799999e+01
1.165359e-05 -2.533767e-06 2.800000e+01
-2.707123e-05 -3.253679e-05 2.800000e+01
-3.896777e-06 1.134805e-06 2.799999e+01
-3.128852e-05 -2.836791e-05 2.799999e+01
-5.715547e-06 3.395708e-05 2.800000e+01
-1.375669e-05 3.209660e-05 2.800000e+01
2.872235e-06 3.344674e-05 2.800001e+01
-1.976434e-05 9.695626e-06 2.799999e+01
-1.298020e-06 4.153160e-05 2.799998e+01
-3.472570e-05 9.141163e-06 2.800000e+01
2.996264e-05 4.639562e-05 2.800000e+01
2.678941e-05 3.575118e-05 2.800000e+01
3.940190e-06 6.254532e-05 2.800000e+01
3.901227e-07 -1.506840e-06 2.800000e+01
-9.525450e-06 2.214784e-05 2.800002e+01
4.071115e-06 1.459751e-05 2.800000e+01
1.513300e-05 3.152702e-06 2.800002e+01
3.469054e-05 3.279999e-05 2.800000e+01
8.751598e-03 8.335336e-03 2.800123e+01
1.235644e-02 1.076286e-02 2.800320e+01
8.807755e-03 8.066700e-03 2.800110e+01
1.239785e-02 1.029375e-02 2.800313e+01
5.213240e-03 5.874975e-03 2.800095e+01
5.274854e-03 5.730761e-03 2.800094e+01
2.759415e-03 2.976645e-03 2.800096e+01
2.806147e-03 2.869036e-03 2.800090e+01
1.203032e-03 1.279074e-03 2.800074e+01
1.219100e-03 1.254951e-03 2.800072e+01
3.902086e-04 4.107083e-04 2.800053e+01
3.894616e-04 4.152491e-04 2.800051e+01
2.238180e-04 2.021922e-04 2.800018e+01
2.255209e-04 2.005178e-04 2.800017e+01
1.821042e-02 1.046517e-02 2.800089e+01
1.762601e-02 1.134975e-02 2.800130e+01
1.819166e-02 1.040333e-02 2.800091e+01
1.767404e-02 1.130027e-02 2.800124e+01
1.587895e-02 9.359439e-03 2.800098e+01
1.584355e-02 9.331770e-03 2.800090e+01
1.142310e-02 6.099261e-03 2.800148e+01
1.143462e-02 6.071970e-03 2.800146e+01
6.670165e-03 4.333410e-03 2.800150e+01
6.672740e-03 4.316281e-03 2.800145e+01
2.790863e-03 2.093114e-03 2.800108e+01
2.804424e-03 2.061103e-03 2.800107e+01
7.830549e-04 7.457781e-04 2.800024e+01
7.928049e-04 7.420673e-04 2.800024e+01
-1.787308e-04 8.333013e-04 2.799990e+01
-1.446159e-04 8.358820e-04 2.799992e+01
1.240452e-03 1.737088e-03 2.800011e+01
1.256538e-03 1.728966e-03 2.800013e+01
4.527607e-03 3.042376e-03 2.800052e+01
4.560453e-03 3.035417e-03 2.800055e+01
9.269834e-03 5.415160e-03 2.800049e+01
9.279998e-03 5.422284e-03 2.800048e+01
1.321278e-02 7.093208e-03 2.800008e+01
1.324830e-02 7.100021e-03 2.800010e+01
1.689436e-02 1.000199e-02 2.800127e+01
1.692786e-02 1.003559e-02 2.800129e+01
1.883422e-02 9.680474e-03 2.800139e+01
1.883804e-02 9.716649e-03 2.800141e+01
2.384551e-02 1.250675e-02 2.800727e+01
2.383858e-02 1.252491e-02 2.800727e+01
1.161718e-02 1.073977e-02 2.799565e+01
8.909795e-04 3.107722e-03 2.799757e+01
7.196050e-03 5.563682e-03 2.799862e+01
-1.890542e-03 1.007185e-02 2.799915e+01
1.159786e-02 1.074167e-02 2.799571e+01
9.221374e-04 3.094121e-03 2.799759e+01
7.208002e-03 5.571023e-03 2.799863e+01
-1.905179e-03 1.016691e-02 2.799913e+01
-6.802622e-03 7.489838e-03 2.800327e+01
-2.825537e-03 8.511982e-03 2.800127e+01
-1.425094e-03 5.793079e-03 2.800087e+01
-3.698765e-03 4.060467e-03 2.800252e+01
-6.803526e-03 7.535510e-03 2.800325e+01
-2.844437e-03 8.518871e-03 2.800121e+01
-1.432238e-03 5.787932e-03 2.800091e+01
-3.722694e-03 4.054649e-03 2.800244e+01
5.696716e-03 1.982167e-02 2.799973e+01
6.848357e-03 1.841948e-02 2.799791e+01
-3.768426e-04 1.805675e-02 2.800055e+01
5.625495e-04 1.995068e-02 2.799975e+01
5.683692e-03 1.987828e-02 2.799974e+01
6.840492e-03 1.842973e-02 2.799792e+01
-3.697491e-04 1.818495e-02 2.800055e+01
5.567207e-04 1.998467e-02 2.799976e+01
4.272639e-05 1.808461e-02 2.799687e+01
5.290769e-03 1.743952e-02 2.799996e+01
6.490007e-03 2.209693e-02 2.800055e+01
1.464955e-05 1.812659e-02 2.799690e+01
5.239035e-03 1.750422e-02 2.799997e+01
6.488806e-03 2.210329e-02 2.800060e+01
7.880791e-03 2.419895e-02 2.800225e+01
2.141173e-03 2.640560e-02 2.800309e+01
7.807412e-03 2.430608e-02 2.800225e+01
2.181167e-03 2.624024e-02 2.800294e+01
-2.834297e-03 4.184497e-03 2.800311e+01
-1.400778e-02 4.170017e-03 2.800642e+01
-6.228534e-03 1.494256e-02 2.800270e+01
2.404364e-03 1.257936e-02 2.800016e+01
-2.903220e-03 4.081909e-03 2.800312e+01
-1.403333e-02 4.125142e-03 2.800631e+01
-6.254615e-03 1.489662e-02 2.800261e+01
2.367234e-03 1.258094e-02 2.800008e+01
8.125004e-03 2.340045e-02 2.799804e+01
2.443402e-02 3.730674e-02 2.800750e+01
8.138630e-03 2.328164e-02 2.799815e+01
2.431776e-02 3.739819e-02 2.800745e+01
1.386108e-03 1.304214e-02 2.799911e+01
-3.291642e-03 1.163047e-02 2.800245e+01
1.395382e-03 1.309653e-02 2.799916e+01
-3.283025e-03 1.166753e-02 2.800244e+01
-1.812821e-03 4.501789e-03 2.800036e+01
2.610238e-04 7.546227e-03 2.799987e+01
3.157295e-03 5.123604e-03 2.799963e+01
-1.831508e-03 4.532958e-03 2.800033e+01
2.414287e-04 7.627520e-03 2.799987e+01
3.161030e-03 5.112989e-03 2.799964e+01
2.418246e-04 2.648955e-03 2.800051e+01
2.218089e-04 2.628505e-03 2.800054e+01
-1.220194e-03 1.943230e-03 2.800080e+01
1.990922e-04 1.887612e-03 2.800193e+01
-1.221535e-03 1.983559e-03 2.800080e+01
1.667307e-04 1.848542e-03 2.800198e+01
-4.386384e-03 6.137382e-03 2.800656e+01
-3.259692e-02 6.290236e-04 2.801287e+01
-4.428553e-03 6.298408e-03 2.800651e+01
-3.246513e-02 3.616511e-04 2.801267e+01
-2.744724e-02 2.220057e-02 2.800679e+01
-2.738139e-02 2.227814e-02 2.800662e+01
-3.065980e-04 8.643069e-03 2.799614e+01
-3.363340e-04 8.674111e-03 2.799622e+01
-1.557015e-03 1.107632e-02 2.799476e+01
-1.007271e-03 5.245002e-03 2.799939e+01
1.121166e-03 7.841318e-03 2.799536e+01
-1.672520e-03 1.101475e-02 2.799503e+01
-1.006468e-03 5.240167e-03 2.799934e+01
1.155297e-03 7.886022e-03 2.799516e+01
2.049810e-02 -6.600281e-03 2.800446e+01
1.128556e-02 6.647622e-03 2.800408e+01
3.099393e-03 1.790536e-03 2.800316e+01
-5.072604e-04 3.967505e-03 2.800127e+01
2.055129e-02 -6.470469e-03 2.800447e+01
1.116741e-02 6.541886e-03 2.800401e+01
3.094996e-03 1.635986e-03 2.800323e+01
-5.951802e-04 3.665436e-03 2.800131e+01
-1.811420e-03 4.950868e-03 2.800091e+01
5.712294e-04 2.895640e-03 2.800605e+01
-1.865181e-03 5.032044e-03 2.800096e+01
5.135380e-04 2.804669e-03 2.800610e+01
-2.969718e-03 6.518738e-03 2.799940e+01
-2.979124e-03 6.592655e-03 2.799938e+01
-1.618806e-02 1.597177e-04 2.801430e+01
-1.920326e-03 -1.117907e-04 2.801253e+01
-1.459156e-02 1.356727e-03 2.802414e+01
8.971873e-03 8.547838e-03 2.803783e+01
-1.630978e-02 8.164371e-05 2.801459e+01
-1.998637e-03 -2.067051e-04 2.801246e+01
-1.450292e-02 1.391580e-03 2.802386e+01
8.760578e-03 8.519105e-03 2.803774e+01
1.445957e-02 -1.145193e-04 2.801137e+01
1.441673e-02 -2.293483e-04 2.801144e+01
1.119303e-02 1.922796e-02 2.799464e+01
1.117389e-02 1.928860e-02 2.799466e+01
1.493416e-03 2.063553e-02 2.799616e+01
1.488110e-03 2.058720e-02 2.799619e+01
1.009632e-03 3.536020e-03 2.799938e+01
1.008301e-03 3.584156e-03 2.799940e+01
7.163921e-03 5.662877e-03 2.799922e+01
7.169992e-03 5.649842e-03 2.799921e+01
-3.479891e-04 8.508158e-03 2.800017e+01
-3.497216e-04 8.492615e-03 2.800013e+01
3.151164e-03 5.273312e-04 2.799925e+01
3.767995e-03 3.866663e-03 2.799977e+01
3.148267e-03 5.134665e-04 2.799927e+01
3.793837e-03 3.875379e-03 2.799973e+01
6.437189e-04 6.516226e-04 2.799948e+01
2.501839e-03 1.212679e-03 2.799972e+01
6.456325e-04 6.499661e-04 2.799946e+01
2.518117e-03 1.217225e-03 2.799975e+01
8.576721e-04 6.642320e-05 2.799964e+01
1.249825e-03 6.298930e-04 2.799977e+01
8.527938e-04 6.800535e-05 2.799967e+01
1.253073e-03 6.281393e-04 2.799978e+01
3.143547e-04 2.085534e-05 2.799979e+01
1.023678e-03 1.578848e-04 2.799989e+01
3.101488e-04 1.021674e-05 2.799981e+01
1.025968e-03 1.642510e-04 2.799988e+01
1.983917e-04 -3.139396e-04 2.799986e+01
6.906232e-04 1.308570e-05 2.799994e+01
2.102655e-04 -2.942101e-04 2.799989e+01
6.709437e-04 1.304998e-05 2.799993e+01
-1.333822e-06 -1.173082e-04 2.799998e+01
4.608441e-04 -8.094811e-05 2.799995e+01
5.153716e-06 -1.534038e-04 2.799997e+01